### Running on host: assam

     Program PWSCF v.6.4.1 starts on 13Aug2019 at 19:40:47 

     This program is part of the open-source Quantum ESPRESSO suite
     for quantum simulation of materials; please cite
         "P. Giannozzi et al., J. Phys.:Condens. Matter 21 395502 (2009);
         "P. Giannozzi et al., J. Phys.:Condens. Matter 29 465901 (2017);
          URL http://www.quantum-espresso.org", 
     in publications or presentations arising from this work. More details at
     http://www.quantum-espresso.org/quote

     Parallel version (MPI), running on     2 processors

     MPI processes distributed on     1 nodes
     R & G space division:  proc/nbgrp/npool/nimage =       2
     Reading input from scf.Fe-afm.in

     Current dimensions of program PWSCF are:
     Max number of different atomic species (ntypx) = 10
     Max number of k-points (npk) =  40000
     Max angular momentum in pseudopotentials (lmaxx) =  3
               file Fe.pbe-nd-rrkjus.UPF: wavefunction(s)  4S renormalized
               file Fe.pbe-nd-rrkjus.UPF: wavefunction(s)  4S renormalized

     Subspace diagonalization in iterative solution of the eigenvalue problem:
     a serial algorithm will be used


     Parallelization info
     --------------------
     sticks:   dense  smooth     PW     G-vecs:    dense   smooth      PW
     Min         120     120     40                 1360     1360     257
     Max         121     121     41                 1361     1361     258
     Sum         241     241     81                 2721     2721     515



     bravais-lattice index     =            1
     lattice parameter (alat)  =       5.4200  a.u.
     unit-cell volume          =     159.2201 (a.u.)^3
     number of atoms/cell      =            2
     number of atomic types    =            2
     number of electrons       =        16.00
     number of Kohn-Sham states=           12
     kinetic-energy cutoff     =      25.0000  Ry
     charge density cutoff     =     100.0000  Ry
     convergence threshold     =      1.0E-09
     mixing beta               =       0.7000
     number of iterations used =            8  plain     mixing
     Exchange-correlation      =  SLA  PW   PBE  PBE ( 1  4  3  4 0 0)

     celldm(1)=   5.420000  celldm(2)=   0.000000  celldm(3)=   0.000000
     celldm(4)=   0.000000  celldm(5)=   0.000000  celldm(6)=   0.000000

     crystal axes: (cart. coord. in units of alat)
               a(1) = (   1.000000   0.000000   0.000000 )  
               a(2) = (   0.000000   1.000000   0.000000 )  
               a(3) = (   0.000000   0.000000   1.000000 )  

     reciprocal axes: (cart. coord. in units 2 pi/alat)
               b(1) = (  1.000000  0.000000  0.000000 )  
               b(2) = (  0.000000  1.000000  0.000000 )  
               b(3) = (  0.000000  0.000000  1.000000 )  


     PseudoPot. # 1 for Fe read from file:
     /home/matic/pw/pseudo/Fe.pbe-nd-rrkjus.UPF
     MD5 check sum: 23c640529ef232ac9996b4ec1b0ce2fd
     Pseudo is Ultrasoft + core correction, Zval =  8.0
     Generated by new atomic code, or converted to UPF format
     Using radial grid of  957 points,  6 beta functions with: 
                l(1) =   0
                l(2) =   0
                l(3) =   1
                l(4) =   1
                l(5) =   2
                l(6) =   2
     Q(r) pseudized with 0 coefficients 


     PseudoPot. # 2 for Fe read from file:
     /home/matic/pw/pseudo/Fe.pbe-nd-rrkjus.UPF
     MD5 check sum: 23c640529ef232ac9996b4ec1b0ce2fd
     Pseudo is Ultrasoft + core correction, Zval =  8.0
     Generated by new atomic code, or converted to UPF format
     Using radial grid of  957 points,  6 beta functions with: 
                l(1) =   0
                l(2) =   0
                l(3) =   1
                l(4) =   1
                l(5) =   2
                l(6) =   2
     Q(r) pseudized with 0 coefficients 


     atomic species   valence    mass     pseudopotential
        Fe1            8.00     1.00000     Fe( 1.00)
        Fe2            8.00     1.00000     Fe( 1.00)

     Starting magnetic structure 
     atomic species   magnetization
        Fe1          1.000
        Fe2         -1.000

     48 Sym. Ops., with inversion, found



   Cartesian axes

     site n.     atom                  positions (alat units)
         1           Fe1 tau(   1) = (   0.0000000   0.0000000   0.0000000  )
         2           Fe2 tau(   2) = (   0.5000000   0.5000000   0.5000000  )

     number of k points=    20  Marzari-Vanderbilt smearing, width (Ry)=  0.0100
                       cart. coord. in units 2pi/alat
        k(    1) = (   0.0625000   0.0625000   0.0625000), wk =   0.0156250
        k(    2) = (   0.0625000   0.0625000   0.1875000), wk =   0.0468750
        k(    3) = (   0.0625000   0.0625000   0.3125000), wk =   0.0468750
        k(    4) = (   0.0625000   0.0625000   0.4375000), wk =   0.0468750
        k(    5) = (   0.0625000   0.1875000   0.1875000), wk =   0.0468750
        k(    6) = (   0.0625000   0.1875000   0.3125000), wk =   0.0937500
        k(    7) = (   0.0625000   0.1875000   0.4375000), wk =   0.0937500
        k(    8) = (   0.0625000   0.3125000   0.3125000), wk =   0.0468750
        k(    9) = (   0.0625000   0.3125000   0.4375000), wk =   0.0937500
        k(   10) = (   0.0625000   0.4375000   0.4375000), wk =   0.0468750
        k(   11) = (   0.1875000   0.1875000   0.1875000), wk =   0.0156250
        k(   12) = (   0.1875000   0.1875000   0.3125000), wk =   0.0468750
        k(   13) = (   0.1875000   0.1875000   0.4375000), wk =   0.0468750
        k(   14) = (   0.1875000   0.3125000   0.3125000), wk =   0.0468750
        k(   15) = (   0.1875000   0.3125000   0.4375000), wk =   0.0937500
        k(   16) = (   0.1875000   0.4375000   0.4375000), wk =   0.0468750
        k(   17) = (   0.3125000   0.3125000   0.3125000), wk =   0.0156250
        k(   18) = (   0.3125000   0.3125000   0.4375000), wk =   0.0468750
        k(   19) = (   0.3125000   0.4375000   0.4375000), wk =   0.0468750
        k(   20) = (   0.4375000   0.4375000   0.4375000), wk =   0.0156250

     Dense  grid:     2721 G-vectors     FFT dimensions: (  18,  18,  18)

     Estimated max dynamical RAM per process >       7.98 MB

     Estimated total dynamical RAM >      15.96 MB
     Generating pointlists ...
     new r_m :   0.3572 (alat units)  1.9362 (a.u.) for type    1
     new r_m :   0.3572 (alat units)  1.9362 (a.u.) for type    2

     Check: negative core charge=   -0.000193

     Initial potential from superposition of free atoms

     starting charge   15.99873, renormalised to   16.00000

     negative rho (up, down):  1.026E-02 1.029E-03
     Starting wfcs are   12 randomized atomic wfcs

     total cpu time spent up to now is        0.6 secs

     Self-consistent Calculation

     iteration #  1     ecut=    25.00 Ry     beta= 0.70
     Davidson diagonalization with overlap
     ethr =  1.00E-02,  avg # of iterations =  3.5

     negative rho (up, down):  8.544E-03 0.000E+00

     total cpu time spent up to now is        1.1 secs

     total energy              =    -111.17048140 Ry
     Harris-Foulkes estimate   =    -111.42737280 Ry
     estimated scf accuracy    <       0.93767901 Ry

     total magnetization       =    -0.00 Bohr mag/cell
     absolute magnetization    =     7.50 Bohr mag/cell

     iteration #  2     ecut=    25.00 Ry     beta= 0.70
     Davidson diagonalization with overlap
     ethr =  5.86E-03,  avg # of iterations =  3.0

     negative rho (up, down):  9.620E-03 0.000E+00

     total cpu time spent up to now is        1.6 secs

     total energy              =    -111.38811803 Ry
     Harris-Foulkes estimate   =    -111.66421650 Ry
     estimated scf accuracy    <       0.73158942 Ry

     total magnetization       =     0.00 Bohr mag/cell
     absolute magnetization    =     6.04 Bohr mag/cell

     iteration #  3     ecut=    25.00 Ry     beta= 0.70
     Davidson diagonalization with overlap
     ethr =  4.57E-03,  avg # of iterations =  2.0

     negative rho (up, down):  9.488E-03 0.000E+00

     total cpu time spent up to now is        2.0 secs

     total energy              =    -111.55612542 Ry
     Harris-Foulkes estimate   =    -111.53216165 Ry
     estimated scf accuracy    <       0.03526634 Ry

     total magnetization       =    -0.01 Bohr mag/cell
     absolute magnetization    =     6.21 Bohr mag/cell

     iteration #  4     ecut=    25.00 Ry     beta= 0.70
     Davidson diagonalization with overlap
     ethr =  2.20E-04,  avg # of iterations =  2.7

     negative rho (up, down):  9.490E-03 0.000E+00

     total cpu time spent up to now is        2.5 secs

     total energy              =    -111.57648354 Ry
     Harris-Foulkes estimate   =    -111.58022276 Ry
     estimated scf accuracy    <       0.03867177 Ry

     total magnetization       =     0.29 Bohr mag/cell
     absolute magnetization    =     5.35 Bohr mag/cell

     iteration #  5     ecut=    25.00 Ry     beta= 0.70
     Davidson diagonalization with overlap
     ethr =  2.20E-04,  avg # of iterations =  1.0

     negative rho (up, down):  9.505E-03 0.000E+00

     total cpu time spent up to now is        2.8 secs

     total energy              =    -111.58104379 Ry
     Harris-Foulkes estimate   =    -111.57912078 Ry
     estimated scf accuracy    <       0.00468612 Ry

     total magnetization       =    -0.07 Bohr mag/cell
     absolute magnetization    =     5.32 Bohr mag/cell

     iteration #  6     ecut=    25.00 Ry     beta= 0.70
     Davidson diagonalization with overlap
     ethr =  2.93E-05,  avg # of iterations =  1.6

     negative rho (up, down):  9.551E-03 0.000E+00

     total cpu time spent up to now is        3.2 secs

     total energy              =    -111.58077224 Ry
     Harris-Foulkes estimate   =    -111.58197224 Ry
     estimated scf accuracy    <       0.00179450 Ry

     total magnetization       =    -0.01 Bohr mag/cell
     absolute magnetization    =     5.13 Bohr mag/cell

     iteration #  7     ecut=    25.00 Ry     beta= 0.70
     Davidson diagonalization with overlap
     ethr =  1.12E-05,  avg # of iterations =  3.0

     negative rho (up, down):  9.551E-03 0.000E+00

     total cpu time spent up to now is        3.7 secs

     total energy              =    -111.58588171 Ry
     Harris-Foulkes estimate   =    -111.58582590 Ry
     estimated scf accuracy    <       0.00248098 Ry

     total magnetization       =     0.08 Bohr mag/cell
     absolute magnetization    =     4.68 Bohr mag/cell

     iteration #  8     ecut=    25.00 Ry     beta= 0.70
     Davidson diagonalization with overlap
     ethr =  1.12E-05,  avg # of iterations =  1.0

     negative rho (up, down):  9.551E-03 0.000E+00

     total cpu time spent up to now is        4.0 secs

     total energy              =    -111.58578551 Ry
     Harris-Foulkes estimate   =    -111.58611015 Ry
     estimated scf accuracy    <       0.00027330 Ry

     total magnetization       =     0.03 Bohr mag/cell
     absolute magnetization    =     4.63 Bohr mag/cell

     iteration #  9     ecut=    25.00 Ry     beta= 0.70
     Davidson diagonalization with overlap
     ethr =  1.71E-06,  avg # of iterations =  3.6

     negative rho (up, down):  9.557E-03 0.000E+00

     total cpu time spent up to now is        4.6 secs

     total energy              =    -111.58622475 Ry
     Harris-Foulkes estimate   =    -111.58669872 Ry
     estimated scf accuracy    <       0.00005360 Ry

     total magnetization       =     0.02 Bohr mag/cell
     absolute magnetization    =     4.51 Bohr mag/cell

     iteration # 10     ecut=    25.00 Ry     beta= 0.70
     Davidson diagonalization with overlap
     ethr =  3.35E-07,  avg # of iterations =  3.1

     negative rho (up, down):  9.557E-03 0.000E+00

     total cpu time spent up to now is        5.1 secs

     total energy              =    -111.58687142 Ry
     Harris-Foulkes estimate   =    -111.58688085 Ry
     estimated scf accuracy    <       0.00005894 Ry

     total magnetization       =     0.01 Bohr mag/cell
     absolute magnetization    =     4.36 Bohr mag/cell

     iteration # 11     ecut=    25.00 Ry     beta= 0.70
     Davidson diagonalization with overlap
     ethr =  3.35E-07,  avg # of iterations =  1.0

     negative rho (up, down):  9.558E-03 0.000E+00

     total cpu time spent up to now is        5.5 secs

     total energy              =    -111.58685766 Ry
     Harris-Foulkes estimate   =    -111.58688740 Ry
     estimated scf accuracy    <       0.00000466 Ry

     total magnetization       =     0.01 Bohr mag/cell
     absolute magnetization    =     4.36 Bohr mag/cell

     iteration # 12     ecut=    25.00 Ry     beta= 0.70
     Davidson diagonalization with overlap
     ethr =  2.91E-08,  avg # of iterations =  3.6

     negative rho (up, down):  9.558E-03 0.000E+00

     total cpu time spent up to now is        6.1 secs

     total energy              =    -111.58689339 Ry
     Harris-Foulkes estimate   =    -111.58689256 Ry
     estimated scf accuracy    <       0.00000180 Ry

     total magnetization       =     0.02 Bohr mag/cell
     absolute magnetization    =     4.32 Bohr mag/cell

     iteration # 13     ecut=    25.00 Ry     beta= 0.70
     Davidson diagonalization with overlap
     ethr =  1.13E-08,  avg # of iterations =  1.5

     negative rho (up, down):  9.558E-03 0.000E+00

     total cpu time spent up to now is        6.4 secs

     total energy              =    -111.58689457 Ry
     Harris-Foulkes estimate   =    -111.58689453 Ry
     estimated scf accuracy    <       0.00000025 Ry

     total magnetization       =     0.02 Bohr mag/cell
     absolute magnetization    =     4.32 Bohr mag/cell

     iteration # 14     ecut=    25.00 Ry     beta= 0.70
     Davidson diagonalization with overlap
     ethr =  1.57E-09,  avg # of iterations =  3.1

     negative rho (up, down):  9.558E-03 0.000E+00

     total cpu time spent up to now is        6.9 secs

     total energy              =    -111.58689461 Ry
     Harris-Foulkes estimate   =    -111.58689464 Ry
     estimated scf accuracy    <       0.00000026 Ry

     total magnetization       =     0.02 Bohr mag/cell
     absolute magnetization    =     4.32 Bohr mag/cell

     iteration # 15     ecut=    25.00 Ry     beta= 0.70
     Davidson diagonalization with overlap
     ethr =  1.57E-09,  avg # of iterations =  2.3

     negative rho (up, down):  9.558E-03 0.000E+00

     total cpu time spent up to now is        7.3 secs

     total energy              =    -111.58689493 Ry
     Harris-Foulkes estimate   =    -111.58689489 Ry
     estimated scf accuracy    <       0.00000010 Ry

     total magnetization       =     0.02 Bohr mag/cell
     absolute magnetization    =     4.32 Bohr mag/cell

     iteration # 16     ecut=    25.00 Ry     beta= 0.70
     Davidson diagonalization with overlap
     ethr =  6.31E-10,  avg # of iterations =  1.8

     negative rho (up, down):  9.558E-03 0.000E+00

     total cpu time spent up to now is        7.7 secs

     total energy              =    -111.58689494 Ry
     Harris-Foulkes estimate   =    -111.58689498 Ry
     estimated scf accuracy    <       0.00000005 Ry

     total magnetization       =     0.02 Bohr mag/cell
     absolute magnetization    =     4.32 Bohr mag/cell

     iteration # 17     ecut=    25.00 Ry     beta= 0.70
     Davidson diagonalization with overlap
     ethr =  3.33E-10,  avg # of iterations =  2.1

     negative rho (up, down):  9.558E-03 0.000E+00

     total cpu time spent up to now is        8.1 secs

     total energy              =    -111.58689496 Ry
     Harris-Foulkes estimate   =    -111.58689496 Ry
     estimated scf accuracy    <       0.00000022 Ry

     total magnetization       =     0.02 Bohr mag/cell
     absolute magnetization    =     4.32 Bohr mag/cell

     iteration # 18     ecut=    25.00 Ry     beta= 0.70
     Davidson diagonalization with overlap
     ethr =  3.33E-10,  avg # of iterations =  2.1

     negative rho (up, down):  9.557E-03 0.000E+00

     total cpu time spent up to now is        8.5 secs

     total energy              =    -111.58689354 Ry
     Harris-Foulkes estimate   =    -111.58689503 Ry
     estimated scf accuracy    <       0.00000012 Ry

     total magnetization       =     0.02 Bohr mag/cell
     absolute magnetization    =     4.32 Bohr mag/cell

     iteration # 19     ecut=    25.00 Ry     beta= 0.70
     Davidson diagonalization with overlap
     ethr =  3.33E-10,  avg # of iterations =  3.0

     negative rho (up, down):  9.557E-03 0.000E+00

     total cpu time spent up to now is        9.1 secs

     total energy              =    -111.58689476 Ry
     Harris-Foulkes estimate   =    -111.58689476 Ry
     estimated scf accuracy    <       0.00000005 Ry

     total magnetization       =     0.01 Bohr mag/cell
     absolute magnetization    =     4.33 Bohr mag/cell

     iteration # 20     ecut=    25.00 Ry     beta= 0.70
     Davidson diagonalization with overlap
     ethr =  3.30E-10,  avg # of iterations =  1.0

     negative rho (up, down):  9.557E-03 0.000E+00

     total cpu time spent up to now is        9.4 secs

     total energy              =    -111.58689457 Ry
     Harris-Foulkes estimate   =    -111.58689476 Ry
     estimated scf accuracy    <       0.00000007 Ry

     total magnetization       =     0.01 Bohr mag/cell
     absolute magnetization    =     4.33 Bohr mag/cell

     iteration # 21     ecut=    25.00 Ry     beta= 0.70
     Davidson diagonalization with overlap
     ethr =  3.30E-10,  avg # of iterations =  2.8

     negative rho (up, down):  9.558E-03 0.000E+00

     total cpu time spent up to now is        9.9 secs

     total energy              =    -111.58689456 Ry
     Harris-Foulkes estimate   =    -111.58689473 Ry
     estimated scf accuracy    <       0.00000004 Ry

     total magnetization       =     0.01 Bohr mag/cell
     absolute magnetization    =     4.33 Bohr mag/cell

     iteration # 22     ecut=    25.00 Ry     beta= 0.70
     Davidson diagonalization with overlap
     ethr =  2.35E-10,  avg # of iterations =  3.0

     negative rho (up, down):  9.558E-03 0.000E+00

     total cpu time spent up to now is       10.4 secs

     total energy              =    -111.58689471 Ry
     Harris-Foulkes estimate   =    -111.58689473 Ry
     estimated scf accuracy    <          6.6E-09 Ry

     total magnetization       =     0.00 Bohr mag/cell
     absolute magnetization    =     4.33 Bohr mag/cell

     iteration # 23     ecut=    25.00 Ry     beta= 0.70
     Davidson diagonalization with overlap
     ethr =  4.14E-11,  avg # of iterations =  2.8

     negative rho (up, down):  9.558E-03 0.000E+00

     Magnetic moment per site:
     atom:    1    charge:    6.4952    magn:    2.0658    constr:    0.0000
     atom:    2    charge:    6.4952    magn:   -2.0659    constr:    0.0000

     total cpu time spent up to now is       10.8 secs

     End of self-consistent calculation

 ------ SPIN UP ------------


          k = 0.0625 0.0625 0.0625 (   341 PWs)   bands (ev):

     5.1798   9.0765   9.0765  11.2648  11.2648  11.4001  13.5549  13.5549
    14.1370  14.3822  14.3822  22.6066

          k = 0.0625 0.0625 0.1875 (   336 PWs)   bands (ev):

     5.7931   9.2947   9.3002  11.1723  11.2007  11.5199  13.3391  13.6247
    13.7075  13.9400  14.3529  19.9561

          k = 0.0625 0.0625 0.3125 (   339 PWs)   bands (ev):

     6.9186   9.5484   9.6616  11.1094  11.1208  11.6096  12.9847  13.2733
    13.3980  13.6971  14.1694  17.2591

          k = 0.0625 0.0625 0.4375 (   336 PWs)   bands (ev):

     8.2439   9.4052   9.9955  11.0333  11.1766  11.6216  12.6781  13.0024
    13.0523  13.5422  13.9744  15.7284

          k = 0.0625 0.1875 0.1875 (   330 PWs)   bands (ev):

     6.3704   9.4337   9.5714  10.9900  11.0733  11.5356  13.3428  13.4386
    13.6036  13.6933  14.4083  20.1452

          k = 0.0625 0.1875 0.3125 (   335 PWs)   bands (ev):

     7.3975   9.5789   9.9514  10.8523  10.9833  11.3576  13.0954  13.2912
    13.5023  13.7338  14.3598  17.7437

          k = 0.0625 0.1875 0.4375 (   334 PWs)   bands (ev):

     8.5323   9.3879  10.1738  10.7912  11.1313  11.2978  12.7661  13.1393
    13.4239  13.9839  14.2510  15.8712

          k = 0.0625 0.3125 0.3125 (   335 PWs)   bands (ev):

     8.1320   9.4364  10.5235  10.6249  10.9668  11.0706  12.9543  13.6204
    13.6473  13.8878  14.4862  17.5490

          k = 0.0625 0.3125 0.4375 (   339 PWs)   bands (ev):

     8.7466   9.1518  10.5249  10.6789  10.8868  11.8327  12.7619  13.5895
    13.7168  14.3684  14.5471  15.9723

          k = 0.0625 0.4375 0.4375 (   338 PWs)   bands (ev):

     8.7999   8.9321  10.3631  10.4101  11.7354  12.4286  13.1477  13.4949
    13.9557  14.6942  14.7795  15.5363

          k = 0.1875 0.1875 0.1875 (   335 PWs)   bands (ev):

     6.9275   9.7048   9.7048  10.8659  10.8659  11.2536  13.4620  13.4999
    13.4999  14.0163  14.0163  21.1008

          k = 0.1875 0.1875 0.3125 (   336 PWs)   bands (ev):

     7.8928   9.9218   9.9410  10.6784  10.7649  10.9760  13.2651  13.3969
    13.6542  13.9215  14.2676  18.4368

          k = 0.1875 0.1875 0.4375 (   343 PWs)   bands (ev):

     8.9008   9.6081  10.1274  10.5066  10.8233  11.3433  12.8890  13.0429
    13.4952  14.3286  14.7578  16.3025

          k = 0.1875 0.3125 0.3125 (   332 PWs)   bands (ev):

     8.6358   9.7925  10.4180  10.5701  10.5834  10.7656  13.0509  13.3480
    13.8981  14.3609  14.4972  18.6127

          k = 0.1875 0.3125 0.4375 (   337 PWs)   bands (ev):

     9.1601   9.5404  10.3286  10.4559  10.7341  11.5572  12.7404  13.0625
    13.9371  14.5701  15.3930  16.8873

          k = 0.1875 0.4375 0.4375 (   334 PWs)   bands (ev):

     9.1328   9.4046  10.2413  10.2647  11.6225  11.9841  12.7333  12.7418
    14.1700  14.8328  16.1190  16.9083

          k = 0.3125 0.3125 0.3125 (   329 PWs)   bands (ev):

     9.3380  10.2351  10.2351  10.3236  10.5537  10.5537  12.9942  12.9942
    14.3308  14.3308  15.3517  20.2313

          k = 0.3125 0.3125 0.4375 (   332 PWs)   bands (ev):

     9.5382  10.1056  10.1545  10.3733  10.5283  11.3848  12.5892  12.8000
    14.3339  14.6825  16.4632  18.1195

          k = 0.3125 0.4375 0.4375 (   330 PWs)   bands (ev):

     9.5650  10.0564  10.0681  10.2660  11.3557  11.4299  12.3508  12.5705
    14.5530  14.8735  17.6656  18.7670

          k = 0.4375 0.4375 0.4375 (   326 PWs)   bands (ev):

     9.8238   9.9446   9.9446  11.1317  11.1317  11.1782  12.2477  12.2477
    14.8936  14.8936  19.2841  20.8931

 ------ SPIN DOWN ----------


          k = 0.0625 0.0625 0.0625 (   341 PWs)   bands (ev):

     5.1798   9.0765   9.0765  11.2648  11.2648  11.4001  13.5549  13.5549
    14.1369  14.3822  14.3822  22.6066

          k = 0.0625 0.0625 0.1875 (   336 PWs)   bands (ev):

     5.7931   9.2947   9.3002  11.1723  11.2006  11.5199  13.3391  13.6246
    13.7075  13.9400  14.3529  19.9561

          k = 0.0625 0.0625 0.3125 (   339 PWs)   bands (ev):

     6.9186   9.5484   9.6616  11.1093  11.1207  11.6096  12.9847  13.2733
    13.3980  13.6970  14.1694  17.2591

          k = 0.0625 0.0625 0.4375 (   336 PWs)   bands (ev):

     8.2439   9.4051   9.9955  11.0332  11.1766  11.6215  12.6780  13.0024
    13.0523  13.5422  13.9744  15.7284

          k = 0.0625 0.1875 0.1875 (   330 PWs)   bands (ev):

     6.3704   9.4337   9.5713  10.9899  11.0733  11.5355  13.3428  13.4386
    13.6035  13.6933  14.4083  20.1452

          k = 0.0625 0.1875 0.3125 (   335 PWs)   bands (ev):

     7.3975   9.5789   9.9514  10.8522  10.9833  11.3576  13.0954  13.2912
    13.5022  13.7337  14.3598  17.7437

          k = 0.0625 0.1875 0.4375 (   334 PWs)   bands (ev):

     8.5323   9.3879  10.1737  10.7912  11.1312  11.2978  12.7661  13.1393
    13.4239  13.9839  14.2510  15.8711

          k = 0.0625 0.3125 0.3125 (   335 PWs)   bands (ev):

     8.1320   9.4364  10.5235  10.6248  10.9668  11.0706  12.9543  13.6204
    13.6473  13.8878  14.4862  17.5490

          k = 0.0625 0.3125 0.4375 (   339 PWs)   bands (ev):

     8.7465   9.1518  10.5249  10.6789  10.8867  11.8327  12.7619  13.5894
    13.7168  14.3684  14.5471  15.9723

          k = 0.0625 0.4375 0.4375 (   338 PWs)   bands (ev):

     8.7999   8.9321  10.3631  10.4100  11.7354  12.4286  13.1477  13.4948
    13.9557  14.6942  14.7795  15.5363

          k = 0.1875 0.1875 0.1875 (   335 PWs)   bands (ev):

     6.9275   9.7047   9.7047  10.8658  10.8658  11.2536  13.4620  13.4999
    13.4999  14.0163  14.0163  21.1008

          k = 0.1875 0.1875 0.3125 (   336 PWs)   bands (ev):

     7.8928   9.9218   9.9410  10.6784  10.7649  10.9759  13.2651  13.3969
    13.6542  13.9215  14.2676  18.4368

          k = 0.1875 0.1875 0.4375 (   343 PWs)   bands (ev):

     8.9008   9.6081  10.1273  10.5066  10.8232  11.3432  12.8890  13.0429
    13.4952  14.3286  14.7577  16.3025

          k = 0.1875 0.3125 0.3125 (   332 PWs)   bands (ev):

     8.6358   9.7925  10.4180  10.5701  10.5833  10.7656  13.0508  13.3479
    13.8981  14.3609  14.4972  18.6127

          k = 0.1875 0.3125 0.4375 (   337 PWs)   bands (ev):

     9.1600   9.5404  10.3285  10.4558  10.7341  11.5572  12.7403  13.0625
    13.9371  14.5701  15.3930  16.8873

          k = 0.1875 0.4375 0.4375 (   334 PWs)   bands (ev):

     9.1328   9.4046  10.2413  10.2647  11.6224  11.9841  12.7333  12.7418
    14.1700  14.8328  16.1190  16.9083

          k = 0.3125 0.3125 0.3125 (   329 PWs)   bands (ev):

     9.3380  10.2351  10.2351  10.3236  10.5536  10.5536  12.9942  12.9942
    14.3307  14.3307  15.3517  20.2313

          k = 0.3125 0.3125 0.4375 (   332 PWs)   bands (ev):

     9.5381  10.1056  10.1544  10.3733  10.5283  11.3847  12.5892  12.8000
    14.3339  14.6825  16.4632  18.1195

          k = 0.3125 0.4375 0.4375 (   330 PWs)   bands (ev):

     9.5650  10.0564  10.0681  10.2660  11.3556  11.4299  12.3507  12.5704
    14.5529  14.8735  17.6655  18.7670

          k = 0.4375 0.4375 0.4375 (   326 PWs)   bands (ev):

     9.8238   9.9446   9.9446  11.1317  11.1317  11.1782  12.2477  12.2477
    14.8936  14.8936  19.2841  20.8931

     the Fermi energy is    13.4970 ev

!    total energy              =    -111.58689473 Ry
     Harris-Foulkes estimate   =    -111.58689473 Ry
     estimated scf accuracy    <          5.9E-11 Ry

     The total energy is the sum of the following terms:

     one-electron contribution =      13.76279022 Ry
     hartree contribution      =      13.47611079 Ry
     xc contribution           =     -52.88028777 Ry
     ewald contribution        =     -85.94499660 Ry
     smearing contrib. (-TS)   =      -0.00051137 Ry

     total magnetization       =    -0.00 Bohr mag/cell
     absolute magnetization    =     4.33 Bohr mag/cell

     convergence has been achieved in  23 iterations

     Writing output data file pwscf.save/

     init_run     :      0.42s CPU      0.44s WALL (       1 calls)
     electrons    :      9.79s CPU     10.28s WALL (       1 calls)

     Called by init_run:
     wfcinit      :      0.12s CPU      0.13s WALL (       1 calls)
     potinit      :      0.01s CPU      0.01s WALL (       1 calls)
     hinit0       :      0.28s CPU      0.29s WALL (       1 calls)

     Called by electrons:
     c_bands      :      7.95s CPU      8.37s WALL (      23 calls)
     sum_band     :      1.44s CPU      1.51s WALL (      23 calls)
     v_of_rho     :      0.20s CPU      0.20s WALL (      24 calls)
     newd         :      0.19s CPU      0.20s WALL (      24 calls)
     mix_rho      :      0.02s CPU      0.02s WALL (      23 calls)

     Called by c_bands:
     init_us_2    :      0.21s CPU      0.22s WALL (    1880 calls)
     cegterg      :      7.55s CPU      7.95s WALL (     920 calls)

     Called by sum_band:
     sum_band:bec :      0.02s CPU      0.02s WALL (     920 calls)
     addusdens    :      0.28s CPU      0.28s WALL (      23 calls)

     Called by *egterg:
     h_psi        :      5.21s CPU      5.50s WALL (    3151 calls)
     s_psi        :      0.43s CPU      0.45s WALL (    3151 calls)
     g_psi        :      0.03s CPU      0.03s WALL (    2191 calls)
     cdiaghg      :      1.05s CPU      1.10s WALL (    3111 calls)

     Called by h_psi:
     h_psi:pot    :      5.20s CPU      5.49s WALL (    3151 calls)
     h_psi:calbec :      0.35s CPU      0.38s WALL (    3151 calls)
     vloc_psi     :      4.40s CPU      4.64s WALL (    3151 calls)
     add_vuspsi   :      0.43s CPU      0.46s WALL (    3151 calls)

     General routines
     calbec       :      0.48s CPU      0.51s WALL (    4071 calls)
     fft          :      0.06s CPU      0.06s WALL (     502 calls)
     ffts         :      0.00s CPU      0.01s WALL (      46 calls)
     fftw         :      4.96s CPU      5.23s WALL (   67654 calls)

     Parallel routines
     fft_scatt_xy :      0.45s CPU      0.48s WALL (   68202 calls)
     fft_scatt_yz :      0.83s CPU      0.88s WALL (   68202 calls)

     PWSCF        :     10.33s CPU     10.87s WALL


   This run was terminated on:  19:40:58  13Aug2019            

=------------------------------------------------------------------------------=
   JOB DONE.
=------------------------------------------------------------------------------=
