### Running on host: sh02-ln01.stanford.edu

     Program BANDS v.6.5 starts on 31May2020 at  2:31:22 

     This program is part of the open-source Quantum ESPRESSO suite
     for quantum simulation of materials; please cite
         "P. Giannozzi et al., J. Phys.:Condens. Matter 21 395502 (2009);
         "P. Giannozzi et al., J. Phys.:Condens. Matter 29 465901 (2017);
          URL http://www.quantum-espresso.org", 
     in publications or presentations arising from this work. More details at
     http://www.quantum-espresso.org/quote

     Parallel version (MPI), running on     1 processors

     MPI processes distributed on     1 nodes

     Reading xml data from directory:

     /scratch/groups/saraswat/aravind2/qe/silicon.save/

     IMPORTANT: XC functional enforced from input :
     Exchange-correlation= PZ
                           (   1   1   0   0   0   0   0)
     Any further DFT definition will be discarded
     Please, verify this is what you really want

 
     G-vector sticks info
     --------------------
     sticks:   dense  smooth     PW     G-vecs:    dense   smooth      PW
     Sum         463     463    151                 6615     6615    1211
 
     Reading collected, re-writing distributed wavefunctions
     high-symmetry point: -0.5000 0.5000 0.5000   x coordinate   0.0000
     high-symmetry point:  0.0000 0.0000 0.0000   x coordinate   0.8660
     high-symmetry point:  0.0000 0.0000 1.0000   x coordinate   1.8660
     high-symmetry point:  0.0000 0.5000 1.0000   x coordinate   2.3660
     high-symmetry point:  0.0000 0.7500 0.7500   x coordinate   2.7196
     high-symmetry point: -0.5000 0.5000 0.5000   x coordinate   3.3320

     Plottable bands (eV) written to file Si.bands.dat.gnu
     Bands written to file Si.bands.dat

 **************************************************************************

                    xk=(  -0.50000,   0.50000,   0.50000  )

     zone border point and non-symmorphic group 
     symmetry decomposition not available

 **************************************************************************

 **************************************************************************

                    xk=(  -0.45000,   0.45000,   0.45000  )

     point group C_3v (3m)  
     there are  3 classes
     the character table:

       E     2C3   3s_v 
A_1    1.00  1.00  1.00
A_2    1.00  1.00 -1.00
E      2.00 -1.00  0.00

     the symmetry operations in each class and the name of the first element:

     E        1
                                                                 
     2C3      2    3
                                                                 
     3s_v     4    5    6
                                                                 

     Band symmetry, C_3v (3m)   point group:

     e(  1 -  1) =     -3.74312  eV     1   --> A_1  L_1       
     e(  2 -  2) =     -0.80107  eV     1   --> A_1  L_1       
     e(  3 -  4) =      4.75453  eV     2   --> E    L_3       
     e(  5 -  5) =      7.40195  eV     1   --> A_1  L_1       
     e(  6 -  7) =      9.28610  eV     2   --> E    L_3       
     e(  8 -  8) =     13.50413  eV     1   --> A_1  L_1       

 **************************************************************************

 **************************************************************************

                    xk=(  -0.40000,   0.40000,   0.40000  )

     Band symmetry, C_3v (3m)   point group:

     e(  1 -  1) =     -4.05969  eV     1   --> A_1  L_1       
     e(  2 -  2) =     -0.30141  eV     1   --> A_1  L_1       
     e(  3 -  4) =      4.80801  eV     2   --> E    L_3       
     e(  5 -  5) =      7.46321  eV     1   --> A_1  L_1       
     e(  6 -  7) =      9.33923  eV     2   --> E    L_3       
     e(  8 -  8) =     13.58381  eV     1   --> A_1  L_1       

 **************************************************************************

 **************************************************************************

                    xk=(  -0.35000,   0.35000,   0.35000  )

     Band symmetry, C_3v (3m)   point group:

     e(  1 -  1) =     -4.43481  eV     1   --> A_1  L_1       
     e(  2 -  2) =      0.37706  eV     1   --> A_1  L_1       
     e(  3 -  4) =      4.89667  eV     2   --> E    L_3       
     e(  5 -  5) =      7.56383  eV     1   --> A_1  L_1       
     e(  6 -  7) =      9.40543  eV     2   --> E    L_3       
     e(  8 -  8) =     13.63147  eV     1   --> A_1  L_1       

 **************************************************************************

 **************************************************************************

                    xk=(  -0.30000,   0.30000,   0.30000  )

     Band symmetry, C_3v (3m)   point group:

     e(  1 -  1) =     -4.80235  eV     1   --> A_1  L_1       
     e(  2 -  2) =      1.16444  eV     1   --> A_1  L_1       
     e(  3 -  4) =      5.01930  eV     2   --> E    L_3       
     e(  5 -  5) =      7.70211  eV     1   --> A_1  L_1       
     e(  6 -  7) =      9.44795  eV     2   --> E    L_3       
     e(  8 -  8) =     13.33616  eV     1   --> A_1  L_1       

 **************************************************************************

 **************************************************************************

                    xk=(  -0.25000,   0.25000,   0.25000  )

     Band symmetry, C_3v (3m)   point group:

     e(  1 -  1) =     -5.13297  eV     1   --> A_1  L_1       
     e(  2 -  2) =      2.02541  eV     1   --> A_1  L_1       
     e(  3 -  4) =      5.17307  eV     2   --> E    L_3       
     e(  5 -  5) =      7.87306  eV     1   --> A_1  L_1       
     e(  6 -  7) =      9.41534  eV     2   --> E    L_3       
     e(  8 -  8) =     12.61193  eV     1   --> A_1  L_1       

 **************************************************************************

 **************************************************************************

                    xk=(  -0.20000,   0.20000,   0.20000  )

     Band symmetry, C_3v (3m)   point group:

     e(  1 -  1) =     -5.41296  eV     1   --> A_1  L_1       
     e(  2 -  2) =      2.93587  eV     1   --> A_1  L_1       
     e(  3 -  4) =      5.35196  eV     2   --> E    L_3       
     e(  5 -  5) =      8.06744  eV     1   --> A_1  L_1       
     e(  6 -  7) =      9.27098  eV     2   --> E    L_3       
     e(  8 -  8) =     11.76022  eV     1   --> A_1  L_1       

 **************************************************************************

 **************************************************************************

                    xk=(  -0.15000,   0.15000,   0.15000  )

     Band symmetry, C_3v (3m)   point group:

     e(  1 -  1) =     -5.63529  eV     1   --> A_1  L_1       
     e(  2 -  2) =      3.86981  eV     1   --> A_1  L_1       
     e(  3 -  4) =      5.54440  eV     2   --> E    L_3       
     e(  5 -  5) =      8.26828  eV     1   --> A_1  L_1       
     e(  6 -  7) =      9.03234  eV     2   --> E    L_3       
     e(  8 -  8) =     10.87947  eV     1   --> A_1  L_1       

 **************************************************************************

 **************************************************************************

                    xk=(  -0.10000,   0.10000,   0.10000  )

     Band symmetry, C_3v (3m)   point group:

     e(  1 -  1) =     -5.79612  eV     1   --> A_1  L_1       
     e(  2 -  2) =      4.78342  eV     1   --> A_1  L_1       
     e(  3 -  4) =      5.72907  eV     2   --> E    L_3       
     e(  5 -  5) =      8.44342  eV     1   --> A_1  L_1       
     e(  6 -  7) =      8.76794  eV     2   --> E    L_3       
     e(  8 -  8) =     10.02316  eV     1   --> A_1  L_1       

 **************************************************************************

 **************************************************************************

                    xk=(  -0.05000,   0.05000,   0.05000  )

     Band symmetry, C_3v (3m)   point group:

     e(  1 -  1) =     -5.89333  eV     1   --> A_1  L_1       
     e(  2 -  2) =      5.56701  eV     1   --> A_1  L_1       
     e(  3 -  4) =      5.87036  eV     2   --> E    L_3       
     e(  5 -  5) =      8.52412  eV     1   --> A_1  L_1       
     e(  6 -  7) =      8.55996  eV     2   --> E    L_3       
     e(  8 -  8) =      9.32511  eV     1   --> A_1  L_1       

 **************************************************************************

 **************************************************************************

                    xk=(   0.00000,   0.00000,   0.00000  )

     point group O_h (m-3m) 
     there are 10 classes
     the character table:

       E     8C3   3C2   6C4   6C2'  i     8S6   3s_h  6S4   6s_d 
A_1g   1.00  1.00  1.00  1.00  1.00  1.00  1.00  1.00  1.00  1.00
A_2g   1.00  1.00  1.00 -1.00 -1.00  1.00  1.00  1.00 -1.00 -1.00
E_g    2.00 -1.00  2.00  0.00  0.00  2.00 -1.00  2.00  0.00  0.00
T_1g   3.00  0.00 -1.00  1.00 -1.00  3.00  0.00 -1.00  1.00 -1.00
T_2g   3.00  0.00 -1.00 -1.00  1.00  3.00  0.00 -1.00 -1.00  1.00
A_1u   1.00  1.00  1.00  1.00  1.00 -1.00 -1.00 -1.00 -1.00 -1.00
A_2u   1.00  1.00  1.00 -1.00 -1.00 -1.00 -1.00 -1.00  1.00  1.00
E_u    2.00 -1.00  2.00  0.00  0.00 -2.00  1.00 -2.00  0.00  0.00
T_1u   3.00  0.00 -1.00  1.00 -1.00 -3.00  0.00  1.00 -1.00  1.00
T_2u   3.00  0.00 -1.00 -1.00  1.00 -3.00  0.00  1.00  1.00 -1.00

     the symmetry operations in each class and the name of the first element:

     E        1
                                                                 
     8C3     17   19   20   18   24   21   22   23
                                                                 
     3C2      2    4    3
                                                                 
     6C4      7    8   15   16   12   11
                                                                 
     6C2'     5    6   14   13   10    9
                                                                 
     i       25
                                                                 
     8S6     41   43   44   42   48   45   46   47
                                                                 
     3s_h    26   28   27
                                                                 
     6S4     31   32   39   40   36   35
                                                                 
     6s_d    29   30   38   37   34   33
                                                                 

     Band symmetry, O_h (m-3m)  point group:

     e(  1 -  1) =     -5.92585  eV     1   --> A_1g G_1   G_1+
     e(  2 -  4) =      5.92489  eV     3   --> T_2g G_25' G_5+
     e(  5 -  7) =      8.48031  eV     3   --> T_1u G_15  G_4-
     e(  8 -  8) =      9.07299  eV     1   --> A_2u G_2'  G_2-

 **************************************************************************

 **************************************************************************

                    xk=(   0.00000,   0.00000,   0.09091  )

     point group C_4v (4mm) 
     there are  5 classes
     the character table:

       E     2C4   C2    2s_v  2s_d 
A_1    1.00  1.00  1.00  1.00  1.00
A_2    1.00  1.00  1.00 -1.00 -1.00
B_1    1.00 -1.00  1.00  1.00 -1.00
B_2    1.00 -1.00  1.00 -1.00  1.00
E      2.00  0.00 -2.00  0.00  0.00

     the symmetry operations in each class and the name of the first element:

     E        1
                                                                 
     2C4      3    4
                                                                 
     C2       2
                                                                 
     2s_v     5    6
                                                                 
     2s_d     7    8
                                                                 

     Band symmetry, C_4v (4mm)  point group:

     e(  1 -  1) =     -5.89000  eV     1   --> A_1  G_1 D_1   
     e(  2 -  2) =      5.68692  eV     1   --> B_2  G_4 D_2'  
     e(  3 -  4) =      5.77985  eV     2   --> E    G_5 D_5   
     e(  5 -  5) =      8.38967  eV     1   --> A_1  G_1 D_1   
     e(  6 -  7) =      8.66852  eV     2   --> E    G_5 D_5   
     e(  8 -  8) =      9.30257  eV     1   --> B_2  G_4 D_2'  

 **************************************************************************

 **************************************************************************

                    xk=(   0.00000,   0.00000,   0.18182  )

     Band symmetry, C_4v (4mm)  point group:

     e(  1 -  1) =     -5.78265  eV     1   --> A_1  G_1 D_1   
     e(  2 -  2) =      5.11737  eV     1   --> B_2  G_4 D_2'  
     e(  3 -  4) =      5.43615  eV     2   --> E    G_5 D_5   
     e(  5 -  5) =      8.15073  eV     1   --> A_1  G_1 D_1   
     e(  6 -  7) =      9.14101  eV     2   --> E    G_5 D_5   
     e(  8 -  8) =      9.80700  eV     1   --> B_2  G_4 D_2'  

 **************************************************************************

 **************************************************************************

                    xk=(   0.00000,   0.00000,   0.27273  )

     Band symmetry, C_4v (4mm)  point group:

     e(  1 -  1) =     -5.60421  eV     1   --> A_1  G_1 D_1   
     e(  2 -  2) =      4.40289  eV     1   --> B_2  G_4 D_2'  
     e(  3 -  4) =      5.02353  eV     2   --> E    G_5 D_5   
     e(  5 -  5) =      7.83130  eV     1   --> A_1  G_1 D_1   
     e(  6 -  7) =      9.76636  eV     2   --> E    G_5 D_5   
     e(  8 -  8) =     10.18741  eV     1   --> B_2  G_4 D_2'  

 **************************************************************************

 **************************************************************************

                    xk=(   0.00000,   0.00000,   0.36364  )

     Band symmetry, C_4v (4mm)  point group:

     e(  1 -  1) =     -5.35556  eV     1   --> A_1  G_1 D_1   
     e(  2 -  2) =      3.63009  eV     1   --> B_2  G_4 D_2'  
     e(  3 -  4) =      4.61069  eV     2   --> E    G_5 D_5   
     e(  5 -  5) =      7.49121  eV     1   --> A_1  G_1 D_1   
     e(  6 -  6) =      9.97003  eV     1   --> B_2  G_4 D_2'  
     e(  7 -  8) =     10.47274  eV     2   --> E    G_5 D_5   

 **************************************************************************

 **************************************************************************

                    xk=(   0.00000,   0.00000,   0.45455  )

     Band symmetry, C_4v (4mm)  point group:

     e(  1 -  1) =     -5.03789  eV     1   --> A_1  G_1 D_1   
     e(  2 -  2) =      2.83322  eV     1   --> B_2  G_4 D_2'  
     e(  3 -  4) =      4.22879  eV     2   --> E    G_5 D_5   
     e(  5 -  5) =      7.17088  eV     1   --> A_1  G_1 D_1   
     e(  6 -  6) =      9.35284  eV     1   --> B_2  G_4 D_2'  
     e(  7 -  8) =     11.22676  eV     2   --> E    G_5 D_5   

 **************************************************************************

 **************************************************************************

                    xk=(   0.00000,   0.00000,   0.54545  )

     Band symmetry, C_4v (4mm)  point group:

     e(  1 -  1) =     -4.65289  eV     1   --> A_1  G_1 D_1   
     e(  2 -  2) =      2.02738  eV     1   --> B_2  G_4 D_2'  
     e(  3 -  4) =      3.89281  eV     2   --> E    G_5 D_5   
     e(  5 -  5) =      6.89495  eV     1   --> A_1  G_1 D_1   
     e(  6 -  6) =      8.68191  eV     1   --> B_2  G_4 D_2'  
     e(  7 -  8) =     12.01157  eV     2   --> E    G_5 D_5   

 **************************************************************************

 **************************************************************************

                    xk=(   0.00000,   0.00000,   0.63636  )

     Band symmetry, C_4v (4mm)  point group:

     e(  1 -  1) =     -4.20278  eV     1   --> A_1  G_1 D_1   
     e(  2 -  2) =      1.22228  eV     1   --> B_2  G_4 D_2'  
     e(  3 -  4) =      3.61101  eV     2   --> E    G_5 D_5   
     e(  5 -  5) =      6.67959  eV     1   --> A_1  G_1 D_1   
     e(  6 -  6) =      8.06943  eV     1   --> B_2  G_4 D_2'  
     e(  7 -  8) =     12.81829  eV     2   --> E    G_5 D_5   

 **************************************************************************

 **************************************************************************

                    xk=(   0.00000,   0.00000,   0.72727  )

     Band symmetry, C_4v (4mm)  point group:

     e(  1 -  1) =     -3.69041  eV     1   --> A_1  G_1 D_1   
     e(  2 -  2) =      0.42637  eV     1   --> B_2  G_4 D_2'  
     e(  3 -  4) =      3.38824  eV     2   --> E    G_5 D_5   
     e(  5 -  5) =      6.53575  eV     1   --> A_1  G_1 D_1   
     e(  6 -  6) =      7.54924  eV     1   --> B_2  G_4 D_2'  
     e(  7 -  8) =     13.64199  eV     2   --> E    G_5 D_5   

 **************************************************************************

 **************************************************************************

                    xk=(   0.00000,   0.00000,   0.81818  )

     Band symmetry, C_4v (4mm)  point group:

     e(  1 -  1) =     -3.11928  eV     1   --> A_1  G_1 D_1   
     e(  2 -  2) =     -0.35137  eV     1   --> B_2  G_4 D_2'  
     e(  3 -  4) =      3.22741  eV     2   --> E    G_5 D_5   
     e(  5 -  5) =      6.47149  eV     1   --> A_1  G_1 D_1   
     e(  6 -  6) =      7.13191  eV     1   --> B_2  G_4 D_2'  
     e(  7 -  8) =     14.47707  eV     2   --> E    G_5 D_5   

 **************************************************************************

 **************************************************************************

                    xk=(   0.00000,   0.00000,   0.90909  )

     Band symmetry, C_4v (4mm)  point group:

     e(  1 -  1) =     -2.49380  eV     1   --> A_1  G_1 D_1   
     e(  2 -  2) =     -1.10295  eV     1   --> B_2  G_4 D_2'  
     e(  3 -  4) =      3.13025  eV     2   --> E    G_5 D_5   
     e(  5 -  5) =      6.49345  eV     1   --> A_1  G_1 D_1   
     e(  6 -  6) =      6.81885  eV     1   --> B_2  G_4 D_2'  
     e(  7 -  8) =     15.29615  eV     2   --> E    G_5 D_5   

 **************************************************************************

 **************************************************************************

                    xk=(   0.00000,   0.00000,   1.00000  )

     zone border point and non-symmorphic group 
     symmetry decomposition not available

 **************************************************************************

 **************************************************************************

                    xk=(  -0.00000,   0.08333,   1.00000  )

     zone border point and non-symmorphic group 
     symmetry decomposition not available

 **************************************************************************

 **************************************************************************

                    xk=(   0.00000,   0.16667,   1.00000  )

     zone border point and non-symmorphic group 
     symmetry decomposition not available

 **************************************************************************

 **************************************************************************

                    xk=(   0.00000,   0.25000,   1.00000  )

     zone border point and non-symmorphic group 
     symmetry decomposition not available

 **************************************************************************

 **************************************************************************

                    xk=(  -0.00000,   0.33333,   1.00000  )

     zone border point and non-symmorphic group 
     symmetry decomposition not available

 **************************************************************************

 **************************************************************************

                    xk=(   0.00000,   0.41667,   1.00000  )

     zone border point and non-symmorphic group 
     symmetry decomposition not available

 **************************************************************************

 **************************************************************************

                    xk=(   0.00000,   0.50000,   1.00000  )

     zone border point and non-symmorphic group 
     symmetry decomposition not available

 **************************************************************************

 **************************************************************************

                    xk=(   0.00000,   0.56250,   0.93750  )

     point group C_s (m)    
     there are  2 classes
     the character table:

       E     s    
A'     1.00  1.00
A''    1.00 -1.00

     the symmetry operations in each class and the name of the first element:

     E        1
                                                                 
     s        2
                                                                 

     Band symmetry, C_s (m)     point group:

     e(  1 -  1) =     -1.90368  eV     1   --> A'             
     e(  2 -  2) =     -1.42912  eV     1   --> A''            
     e(  3 -  3) =      1.90490  eV     1   --> A'             
     e(  4 -  4) =      2.40735  eV     1   --> A''            
     e(  5 -  5) =      9.23573  eV     1   --> A''            
     e(  6 -  6) =     10.17216  eV     1   --> A'             
     e(  7 -  7) =     11.32140  eV     1   --> A'             
     e(  8 -  8) =     11.39058  eV     1   --> A''            

 **************************************************************************

 **************************************************************************

                    xk=(   0.00000,   0.62500,   0.87500  )

     Band symmetry, C_s (m)     point group:

     e(  1 -  1) =     -2.08206  eV     1   --> A'             
     e(  2 -  2) =     -1.30588  eV     1   --> A''            
     e(  3 -  3) =      1.76384  eV     1   --> A'             
     e(  4 -  4) =      2.85868  eV     1   --> A''            
     e(  5 -  5) =      8.20827  eV     1   --> A''            
     e(  6 -  6) =     10.08690  eV     1   --> A'             
     e(  7 -  7) =     12.00446  eV     1   --> A'             
     e(  8 -  8) =     12.25747  eV     1   --> A''            

 **************************************************************************

 **************************************************************************

                    xk=(   0.00000,   0.68750,   0.81250  )

     Band symmetry, C_s (m)     point group:

     e(  1 -  1) =     -2.18940  eV     1   --> A'             
     e(  2 -  2) =     -1.25133  eV     1   --> A''            
     e(  3 -  3) =      1.67775  eV     1   --> A'             
     e(  4 -  4) =      3.31237  eV     1   --> A''            
     e(  5 -  5) =      7.41802  eV     1   --> A''            
     e(  6 -  6) =     10.02011  eV     1   --> A'             
     e(  7 -  7) =     12.73970  eV     1   --> A'             
     e(  8 -  8) =     13.18392  eV     1   --> A''            

 **************************************************************************

 **************************************************************************

                    xk=(   0.00000,   0.75000,   0.75000  )

     point group C_2v (mm2) 
     there are  4 classes
     the character table:

       E     C2    s_v   s_v' 
A_1    1.00  1.00  1.00  1.00
A_2    1.00  1.00 -1.00 -1.00
B_1    1.00 -1.00  1.00 -1.00
B_2    1.00 -1.00 -1.00  1.00

     the symmetry operations in each class and the name of the first element:

     E        1
                                                                 
     C2       2
                                                                 
     s_v      4
                                                                 
     s_v'     3
                                                                 

     Band symmetry, C_2v (mm2)  point group:

     e(  1 -  1) =     -2.22519  eV     1   --> A_1  D_1  S_1  
     e(  2 -  2) =     -1.23656  eV     1   --> B_1  D_3  S_3  
     e(  3 -  3) =      1.64883  eV     1   --> A_1  D_1  S_1  
     e(  4 -  4) =      3.52200  eV     1   --> A_2  D_2  S_2  
     e(  5 -  5) =      7.09891  eV     1   --> B_1  D_3  S_3  
     e(  6 -  6) =      9.99634  eV     1   --> A_1  D_1  S_1  
     e(  7 -  7) =     13.30937  eV     1   --> B_2  D_4  S_4  
     e(  8 -  8) =     13.79515  eV     1   --> A_1  D_1  S_1  

 **************************************************************************

 **************************************************************************

                    xk=(  -0.07143,   0.71429,   0.71429  )

     point group C_s (m)    
     there are  2 classes
     the character table:

       E     s    
A'     1.00  1.00
A''    1.00 -1.00

     the symmetry operations in each class and the name of the first element:

     E        1
                                                                 
     s        2
                                                                 

     Band symmetry, C_s (m)     point group:

     e(  1 -  1) =     -2.49149  eV     1   --> A'             
     e(  2 -  2) =     -1.00201  eV     1   --> A'             
     e(  3 -  3) =      1.63994  eV     1   --> A'             
     e(  4 -  4) =      3.66384  eV     1   --> A''            
     e(  5 -  5) =      7.26961  eV     1   --> A'             
     e(  6 -  6) =     10.73728  eV     1   --> A'             
     e(  7 -  7) =     12.62615  eV     1   --> A''            
     e(  8 -  8) =     12.80938  eV     1   --> A'             

 **************************************************************************

 **************************************************************************

                    xk=(  -0.14286,   0.67857,   0.67857  )

     Band symmetry, C_s (m)     point group:

     e(  1 -  1) =     -2.80761  eV     1   --> A'             
     e(  2 -  2) =     -0.83840  eV     1   --> A'             
     e(  3 -  3) =      1.90418  eV     1   --> A'             
     e(  4 -  4) =      3.84934  eV     1   --> A''            
     e(  5 -  5) =      7.50287  eV     1   --> A'             
     e(  6 -  6) =     11.39627  eV     1   --> A'             
     e(  7 -  7) =     11.78516  eV     1   --> A''            
     e(  8 -  8) =     11.93012  eV     1   --> A'             

 **************************************************************************

 **************************************************************************

                    xk=(  -0.21429,   0.64286,   0.64286  )

     Band symmetry, C_s (m)     point group:

     e(  1 -  1) =     -3.08806  eV     1   --> A'             
     e(  2 -  2) =     -0.81354  eV     1   --> A'             
     e(  3 -  3) =      2.41892  eV     1   --> A'             
     e(  4 -  4) =      4.06728  eV     1   --> A''            
     e(  5 -  5) =      7.77761  eV     1   --> A'             
     e(  6 -  6) =     10.70034  eV     1   --> A'             
     e(  7 -  7) =     10.99182  eV     1   --> A''            
     e(  8 -  8) =     12.50535  eV     1   --> A'             

 **************************************************************************

 **************************************************************************

                    xk=(  -0.28571,   0.60714,   0.60714  )

     Band symmetry, C_s (m)     point group:

     e(  1 -  1) =     -3.31334  eV     1   --> A'             
     e(  2 -  2) =     -0.86399  eV     1   --> A'             
     e(  3 -  3) =      3.08658  eV     1   --> A'             
     e(  4 -  4) =      4.29925  eV     1   --> A''            
     e(  5 -  5) =      8.03075  eV     1   --> A'             
     e(  6 -  6) =      9.83225  eV     1   --> A'             
     e(  7 -  7) =     10.30131  eV     1   --> A''            
     e(  8 -  8) =     13.35884  eV     1   --> A'             

 **************************************************************************

 **************************************************************************

                    xk=(  -0.35714,   0.57143,   0.57143  )

     Band symmetry, C_s (m)     point group:

     e(  1 -  1) =     -3.47690  eV     1   --> A'             
     e(  2 -  2) =     -0.92989  eV     1   --> A'             
     e(  3 -  3) =      3.80522  eV     1   --> A'             
     e(  4 -  4) =      4.51610  eV     1   --> A''            
     e(  5 -  5) =      8.04400  eV     1   --> A'             
     e(  6 -  6) =      9.26949  eV     1   --> A'             
     e(  7 -  7) =      9.75325  eV     1   --> A''            
     e(  8 -  8) =     13.83974  eV     1   --> A'             

 **************************************************************************

 **************************************************************************

                    xk=(  -0.42857,   0.53571,   0.53571  )

     Band symmetry, C_s (m)     point group:

     e(  1 -  1) =     -3.57585  eV     1   --> A'             
     e(  2 -  2) =     -0.97890  eV     1   --> A'             
     e(  3 -  3) =      4.44421  eV     1   --> A'             
     e(  4 -  4) =      4.67650  eV     1   --> A''            
     e(  5 -  5) =      7.64252  eV     1   --> A'             
     e(  6 -  6) =      9.21602  eV     1   --> A'             
     e(  7 -  7) =      9.39315  eV     1   --> A''            
     e(  8 -  8) =     13.61794  eV     1   --> A'             

 **************************************************************************

 **************************************************************************

                    xk=(  -0.50000,   0.50000,   0.50000  )

     zone border point and non-symmorphic group 
     symmetry decomposition not available

 **************************************************************************
 
     BANDS        :      1.54s CPU      2.13s WALL

 
   This run was terminated on:   2:31:24  31May2020            

=------------------------------------------------------------------------------=
   JOB DONE.
=------------------------------------------------------------------------------=
