### Running on host: sh02-ln01.stanford.edu

     Program PWSCF v.6.5 starts on 31May2020 at  2:31:15 

     This program is part of the open-source Quantum ESPRESSO suite
     for quantum simulation of materials; please cite
         "P. Giannozzi et al., J. Phys.:Condens. Matter 21 395502 (2009);
         "P. Giannozzi et al., J. Phys.:Condens. Matter 29 465901 (2017);
          URL http://www.quantum-espresso.org", 
     in publications or presentations arising from this work. More details at
     http://www.quantum-espresso.org/quote

     Parallel version (MPI), running on     1 processors

     MPI processes distributed on     1 nodes
     Reading input from pw.Si.scf.in

     Current dimensions of program PWSCF are:
     Max number of different atomic species (ntypx) = 10
     Max number of k-points (npk) =  40000
     Max angular momentum in pseudopotentials (lmaxx) =  3

     Subspace diagonalization in iterative solution of the eigenvalue problem:
     a serial algorithm will be used

 
     G-vector sticks info
     --------------------
     sticks:   dense  smooth     PW     G-vecs:    dense   smooth      PW
     Sum         463     463    151                 6615     6615    1243
 


     bravais-lattice index     =            2
     lattice parameter (alat)  =      10.3000  a.u.
     unit-cell volume          =     273.1818 (a.u.)^3
     number of atoms/cell      =            2
     number of atomic types    =            1
     number of electrons       =         8.00
     number of Kohn-Sham states=            4
     kinetic-energy cutoff     =      32.0000  Ry
     charge density cutoff     =     128.0000  Ry
     convergence threshold     =      1.0E-06
     mixing beta               =       0.7000
     number of iterations used =            8  plain     mixing
     Exchange-correlation= SLA PZ NOGX NOGC
                           (   1   1   0   0   0   0   0)

     celldm(1)=  10.300000  celldm(2)=   0.000000  celldm(3)=   0.000000
     celldm(4)=   0.000000  celldm(5)=   0.000000  celldm(6)=   0.000000

     crystal axes: (cart. coord. in units of alat)
               a(1) = (  -0.500000   0.000000   0.500000 )  
               a(2) = (   0.000000   0.500000   0.500000 )  
               a(3) = (  -0.500000   0.500000   0.000000 )  

     reciprocal axes: (cart. coord. in units 2 pi/alat)
               b(1) = ( -1.000000 -1.000000  1.000000 )  
               b(2) = (  1.000000  1.000000  1.000000 )  
               b(3) = ( -1.000000  1.000000 -1.000000 )  


     PseudoPot. # 1 for Si read from file:
     /home/groups/saraswat/qe-6.5/pseudo/Si.pz-vbc.UPF
     MD5 check sum: 9f25e6ff280f3123e9b3a84715b2e9c9
     Pseudo is Norm-conserving, Zval =  4.0
     Generated by new atomic code, or converted to UPF format
     Using radial grid of  431 points,  2 beta functions with: 
                l(1) =   0
                l(2) =   1

     atomic species   valence    mass     pseudopotential
        Si             4.00    28.08600     Si( 1.00)

     48 Sym. Ops., with inversion, found (24 have fractional translation)



   Cartesian axes

     site n.     atom                  positions (alat units)
         1           Si  tau(   1) = (   0.0000000   0.0000000   0.0000000  )
         2           Si  tau(   2) = (   0.2500000   0.2500000   0.2500000  )

     number of k points=    28
                       cart. coord. in units 2pi/alat
        k(    1) = (  -0.0833333   0.0833333   0.0833333), wk =   0.0185185
        k(    2) = (  -0.2500000   0.2500000  -0.0833333), wk =   0.0555556
        k(    3) = (  -0.4166667   0.4166667  -0.2500000), wk =   0.0555556
        k(    4) = (   0.4166667  -0.4166667   0.5833333), wk =   0.0555556
        k(    5) = (   0.2500000  -0.2500000   0.4166667), wk =   0.0555556
        k(    6) = (   0.0833333  -0.0833333   0.2500000), wk =   0.0555556
        k(    7) = (  -0.0833333   0.4166667   0.0833333), wk =   0.0555556
        k(    8) = (  -0.2500000   0.5833333  -0.0833333), wk =   0.1111111
        k(    9) = (   0.5833333  -0.2500000   0.7500000), wk =   0.1111111
        k(   10) = (   0.4166667  -0.0833333   0.5833333), wk =   0.1111111
        k(   11) = (   0.2500000   0.0833333   0.4166667), wk =   0.1111111
        k(   12) = (  -0.0833333   0.7500000   0.0833333), wk =   0.0555556
        k(   13) = (   0.7500000  -0.0833333   0.9166667), wk =   0.1111111
        k(   14) = (   0.5833333   0.0833333   0.7500000), wk =   0.1111111
        k(   15) = (   0.4166667   0.2500000   0.5833333), wk =   0.1111111
        k(   16) = (  -0.0833333  -0.9166667   0.0833333), wk =   0.0555556
        k(   17) = (  -0.2500000  -0.7500000  -0.0833333), wk =   0.1111111
        k(   18) = (  -0.0833333  -0.5833333   0.0833333), wk =   0.0555556
        k(   19) = (  -0.2500000   0.2500000   0.2500000), wk =   0.0185185
        k(   20) = (  -0.4166667   0.4166667   0.0833333), wk =   0.0555556
        k(   21) = (   0.4166667  -0.4166667   0.9166667), wk =   0.0555556
        k(   22) = (   0.2500000  -0.2500000   0.7500000), wk =   0.0555556
        k(   23) = (  -0.2500000   0.5833333   0.2500000), wk =   0.0555556
        k(   24) = (   0.5833333  -0.2500000   1.0833333), wk =   0.1111111
        k(   25) = (   0.4166667  -0.0833333   0.9166667), wk =   0.1111111
        k(   26) = (  -0.2500000  -1.0833333   0.2500000), wk =   0.0555556
        k(   27) = (  -0.4166667   0.4166667   0.4166667), wk =   0.0185185
        k(   28) = (   0.4166667  -0.4166667   1.2500000), wk =   0.0555556

     Dense  grid:     6615 G-vectors     FFT dimensions: (  32,  32,  32)

     Estimated max dynamical RAM per process >       7.13 MB

     Initial potential from superposition of free atoms

     starting charge    7.99901, renormalised to    8.00000
     Starting wfcs are    8 randomized atomic wfcs

     total cpu time spent up to now is        0.3 secs

     Self-consistent Calculation

     iteration #  1     ecut=    32.00 Ry     beta= 0.70
     Davidson diagonalization with overlap
     ethr =  1.00E-02,  avg # of iterations =  2.0

     Threshold (ethr) on eigenvalues was too large:
     Diagonalizing with lowered threshold

     Davidson diagonalization with overlap
     ethr =  7.53E-04,  avg # of iterations =  1.0

     total cpu time spent up to now is        0.8 secs

     total energy              =     -15.84882359 Ry
     Harris-Foulkes estimate   =     -15.86826735 Ry
     estimated scf accuracy    <       0.05875187 Ry

     iteration #  2     ecut=    32.00 Ry     beta= 0.70
     Davidson diagonalization with overlap
     ethr =  7.34E-04,  avg # of iterations =  1.0

     total cpu time spent up to now is        1.0 secs

     total energy              =     -15.85160362 Ry
     Harris-Foulkes estimate   =     -15.85190625 Ry
     estimated scf accuracy    <       0.00214091 Ry

     iteration #  3     ecut=    32.00 Ry     beta= 0.70
     Davidson diagonalization with overlap
     ethr =  2.68E-05,  avg # of iterations =  2.6

     total cpu time spent up to now is        1.3 secs

     total energy              =     -15.85202042 Ry
     Harris-Foulkes estimate   =     -15.85205231 Ry
     estimated scf accuracy    <       0.00007087 Ry

     iteration #  4     ecut=    32.00 Ry     beta= 0.70
     Davidson diagonalization with overlap
     ethr =  8.86E-07,  avg # of iterations =  2.2

     total cpu time spent up to now is        1.5 secs

     total energy              =     -15.85203797 Ry
     Harris-Foulkes estimate   =     -15.85204194 Ry
     estimated scf accuracy    <       0.00000847 Ry

     iteration #  5     ecut=    32.00 Ry     beta= 0.70
     Davidson diagonalization with overlap
     ethr =  1.06E-07,  avg # of iterations =  2.1

     total cpu time spent up to now is        1.8 secs

     End of self-consistent calculation

          k =-0.0833 0.0833 0.0833 (   866 PWs)   bands (ev):

    -5.8349   5.0693   5.7842   5.7842

          k =-0.2500 0.2500-0.0833 (   843 PWs)   bands (ev):

    -5.3607   3.0018   4.5518   5.5755

          k =-0.4167 0.4167-0.2500 (   834 PWs)   bands (ev):

    -4.2719   0.2518   4.0891   4.9418

          k = 0.4167-0.4167 0.5833 (   830 PWs)   bands (ev):

    -3.5715  -0.8923   4.1555   4.5627

          k = 0.2500-0.2500 0.4167 (   842 PWs)   bands (ev):

    -4.6830   1.0954   4.6223   4.6526

          k = 0.0833-0.0833 0.2500 (   848 PWs)   bands (ev):

    -5.5956   4.0071   5.1419   5.3259

          k =-0.0833 0.4167 0.0833 (   844 PWs)   bands (ev):

    -5.1210   2.8196   4.3980   4.4150

          k =-0.2500 0.5833-0.0833 (   837 PWs)   bands (ev):

    -4.2147   0.9950   3.0790   4.0277

          k = 0.5833-0.2500 0.7500 (   833 PWs)   bands (ev):

    -3.0982  -0.7535   2.4788   3.8003

          k = 0.4167-0.0833 0.5833 (   833 PWs)   bands (ev):

    -3.8207   0.3044   2.4347   4.2862

          k = 0.2500 0.0833 0.4167 (   840 PWs)   bands (ev):

    -4.8964   1.9859   3.7758   4.9531

          k =-0.0833 0.7500 0.0833 (   831 PWs)   bands (ev):

    -3.5077   0.1800   3.0453   3.3890

          k = 0.7500-0.0833 0.9167 (   830 PWs)   bands (ev):

    -2.3162  -1.1495   2.1984   2.9787

          k = 0.5833 0.0833 0.7500 (   834 PWs)   bands (ev):

    -2.6811  -0.8226   1.7136   3.5241

          k = 0.4167 0.2500 0.5833 (   832 PWs)   bands (ev):

    -3.7069  -0.3870   3.3795   4.3845

          k =-0.0833-0.9167 0.0833 (   818 PWs)   bands (ev):

    -2.4095  -1.1582   2.7758   3.1740

          k =-0.2500-0.7500-0.0833 (   834 PWs)   bands (ev):

    -3.3387  -0.0428   2.5216   3.3192

          k =-0.0833-0.5833 0.0833 (   834 PWs)   bands (ev):

    -4.4200   1.5330   3.5902   3.8103

          k =-0.2500 0.2500 0.2500 (   839 PWs)   bands (ev):

    -5.1321   2.0263   5.1741   5.1741

          k =-0.4167 0.4167 0.0833 (   836 PWs)   bands (ev):

    -4.4559   1.1039   3.0424   5.0057

          k = 0.4167-0.4167 0.9167 (   837 PWs)   bands (ev):

    -3.2797  -0.3249   1.9336   4.2223

          k = 0.2500-0.2500 0.7500 (   830 PWs)   bands (ev):

    -3.2288  -0.4035   2.4144   3.7416

          k =-0.2500 0.5833 0.2500 (   833 PWs)   bands (ev):

    -4.0332   0.2985   3.5087   4.1137

          k = 0.5833-0.2500 1.0833 (   835 PWs)   bands (ev):

    -3.0348  -0.4321   2.0337   3.3146

          k = 0.4167-0.0833 0.9167 (   835 PWs)   bands (ev):

    -2.2074  -1.1572   1.8668   2.6453

          k =-0.2500-1.0833 0.2500 (   829 PWs)   bands (ev):

    -2.4162  -1.0675   1.7402   3.5475

          k =-0.4167 0.4167 0.4167 (   835 PWs)   bands (ev):

    -3.9417  -0.4921   4.7873   4.7873

          k = 0.4167-0.4167 1.2500 (   836 PWs)   bands (ev):

    -3.3378  -0.7894   2.9541   4.3487

     highest occupied level (ev):     5.7842

!    total energy              =     -15.85203932 Ry
     Harris-Foulkes estimate   =     -15.85203937 Ry
     estimated scf accuracy    <       0.00000010 Ry

     The total energy is the sum of the following terms:

     one-electron contribution =       4.56640197 Ry
     hartree contribution      =       1.10247310 Ry
     xc contribution           =      -4.78523110 Ry
     ewald contribution        =     -16.73568330 Ry

     convergence has been achieved in   5 iterations

     Writing output data file /scratch/groups/saraswat/aravind2/qe/silicon.save/
 
     init_run     :      0.22s CPU      0.24s WALL (       1 calls)
     electrons    :      1.41s CPU      1.47s WALL (       1 calls)

     Called by init_run:
     wfcinit      :      0.17s CPU      0.18s WALL (       1 calls)
     potinit      :      0.01s CPU      0.01s WALL (       1 calls)
     hinit0       :      0.02s CPU      0.02s WALL (       1 calls)

     Called by electrons:
     c_bands      :      1.15s CPU      1.18s WALL (       6 calls)
     sum_band     :      0.24s CPU      0.25s WALL (       6 calls)
     v_of_rho     :      0.01s CPU      0.01s WALL (       6 calls)
     mix_rho      :      0.00s CPU      0.01s WALL (       6 calls)

     Called by c_bands:
     init_us_2    :      0.04s CPU      0.04s WALL (     364 calls)
     cegterg      :      1.11s CPU      1.13s WALL (     168 calls)

     Called by sum_band:

     Called by *egterg:
     h_psi        :      1.19s CPU      1.21s WALL (     500 calls)
     g_psi        :      0.01s CPU      0.01s WALL (     304 calls)
     cdiaghg      :      0.02s CPU      0.02s WALL (     444 calls)

     Called by h_psi:
     h_psi:calbec :      0.01s CPU      0.01s WALL (     500 calls)
     vloc_psi     :      1.15s CPU      1.18s WALL (     500 calls)
     add_vuspsi   :      0.01s CPU      0.01s WALL (     500 calls)

     General routines
     calbec       :      0.01s CPU      0.01s WALL (     500 calls)
     fft          :      0.01s CPU      0.01s WALL (      18 calls)
     ffts         :      0.00s CPU      0.00s WALL (       6 calls)
     fftw         :      1.15s CPU      1.17s WALL (    4656 calls)
 
     Parallel routines
 
     PWSCF        :      1.70s CPU      3.51s WALL

 
   This run was terminated on:   2:31:18  31May2020            

=------------------------------------------------------------------------------=
   JOB DONE.
=------------------------------------------------------------------------------=
