### Running on host: sh02-ln01.stanford.edu

     Program PWSCF v.6.5 starts on 31May2020 at  2:31:18 

     This program is part of the open-source Quantum ESPRESSO suite
     for quantum simulation of materials; please cite
         "P. Giannozzi et al., J. Phys.:Condens. Matter 21 395502 (2009);
         "P. Giannozzi et al., J. Phys.:Condens. Matter 29 465901 (2017);
          URL http://www.quantum-espresso.org", 
     in publications or presentations arising from this work. More details at
     http://www.quantum-espresso.org/quote

     Parallel version (MPI), running on     1 processors

     MPI processes distributed on     1 nodes
     Reading input from pw.Si.bands.in

     Current dimensions of program PWSCF are:
     Max number of different atomic species (ntypx) = 10
     Max number of k-points (npk) =  40000
     Max angular momentum in pseudopotentials (lmaxx) =  3

     Atomic positions and unit cell read from directory:
     /scratch/groups/saraswat/aravind2/qe/silicon.save/                                                                                                                                                                                                              
 

     Subspace diagonalization in iterative solution of the eigenvalue problem:
     a serial algorithm will be used

 
     G-vector sticks info
     --------------------
     sticks:   dense  smooth     PW     G-vecs:    dense   smooth      PW
     Sum         463     463    151                 6615     6615    1211
 


     bravais-lattice index     =            2
     lattice parameter (alat)  =      10.3000  a.u.
     unit-cell volume          =     273.1818 (a.u.)^3
     number of atoms/cell      =            2
     number of atomic types    =            1
     number of electrons       =         8.00
     number of Kohn-Sham states=            8
     kinetic-energy cutoff     =      32.0000  Ry
     charge density cutoff     =     128.0000  Ry
     Exchange-correlation= SLA PZ NOGX NOGC
                           (   1   1   0   0   0   0   0)

     celldm(1)=  10.300000  celldm(2)=   0.000000  celldm(3)=   0.000000
     celldm(4)=   0.000000  celldm(5)=   0.000000  celldm(6)=   0.000000

     crystal axes: (cart. coord. in units of alat)
               a(1) = (  -0.500000   0.000000   0.500000 )  
               a(2) = (   0.000000   0.500000   0.500000 )  
               a(3) = (  -0.500000   0.500000   0.000000 )  

     reciprocal axes: (cart. coord. in units 2 pi/alat)
               b(1) = ( -1.000000 -1.000000  1.000000 )  
               b(2) = (  1.000000  1.000000  1.000000 )  
               b(3) = ( -1.000000  1.000000 -1.000000 )  


     PseudoPot. # 1 for Si read from file:
     /home/groups/saraswat/qe-6.5/pseudo/Si.pz-vbc.UPF
     MD5 check sum: 9f25e6ff280f3123e9b3a84715b2e9c9
     Pseudo is Norm-conserving, Zval =  4.0
     Generated by new atomic code, or converted to UPF format
     Using radial grid of  431 points,  2 beta functions with: 
                l(1) =   0
                l(2) =   1

     atomic species   valence    mass     pseudopotential
        Si             4.00    28.08600     Si( 1.00)

     48 Sym. Ops., with inversion, found (24 have fractional translation)



   Cartesian axes

     site n.     atom                  positions (alat units)
         1           Si  tau(   1) = (   0.0000000   0.0000000   0.0000000  )
         2           Si  tau(   2) = (   0.2500000   0.2500000   0.2500000  )

     number of k points=    39
                       cart. coord. in units 2pi/alat
        k(    1) = (  -0.5000000   0.5000000   0.5000000), wk =   0.0512821
        k(    2) = (  -0.4500000   0.4500000   0.4500000), wk =   0.0512821
        k(    3) = (  -0.4000000   0.4000000   0.4000000), wk =   0.0512821
        k(    4) = (  -0.3500000   0.3500000   0.3500000), wk =   0.0512821
        k(    5) = (  -0.3000000   0.3000000   0.3000000), wk =   0.0512821
        k(    6) = (  -0.2500000   0.2500000   0.2500000), wk =   0.0512821
        k(    7) = (  -0.2000000   0.2000000   0.2000000), wk =   0.0512821
        k(    8) = (  -0.1500000   0.1500000   0.1500000), wk =   0.0512821
        k(    9) = (  -0.1000000   0.1000000   0.1000000), wk =   0.0512821
        k(   10) = (  -0.0500000   0.0500000   0.0500000), wk =   0.0512821
        k(   11) = (   0.0000000   0.0000000   0.0000000), wk =   0.0512821
        k(   12) = (   0.0000000   0.0000000   0.0909091), wk =   0.0512821
        k(   13) = (   0.0000000   0.0000000   0.1818182), wk =   0.0512821
        k(   14) = (   0.0000000   0.0000000   0.2727273), wk =   0.0512821
        k(   15) = (   0.0000000   0.0000000   0.3636364), wk =   0.0512821
        k(   16) = (   0.0000000   0.0000000   0.4545455), wk =   0.0512821
        k(   17) = (   0.0000000   0.0000000   0.5454545), wk =   0.0512821
        k(   18) = (   0.0000000   0.0000000   0.6363636), wk =   0.0512821
        k(   19) = (   0.0000000   0.0000000   0.7272727), wk =   0.0512821
        k(   20) = (   0.0000000   0.0000000   0.8181818), wk =   0.0512821
        k(   21) = (   0.0000000   0.0000000   0.9090909), wk =   0.0512821
        k(   22) = (   0.0000000   0.0000000   1.0000000), wk =   0.0512821
        k(   23) = (  -0.0000000   0.0833333   1.0000000), wk =   0.0512821
        k(   24) = (   0.0000000   0.1666667   1.0000000), wk =   0.0512821
        k(   25) = (   0.0000000   0.2500000   1.0000000), wk =   0.0512821
        k(   26) = (  -0.0000000   0.3333333   1.0000000), wk =   0.0512821
        k(   27) = (   0.0000000   0.4166667   1.0000000), wk =   0.0512821
        k(   28) = (   0.0000000   0.5000000   1.0000000), wk =   0.0512821
        k(   29) = (   0.0000000   0.5625000   0.9375000), wk =   0.0512821
        k(   30) = (   0.0000000   0.6250000   0.8750000), wk =   0.0512821
        k(   31) = (   0.0000000   0.6875000   0.8125000), wk =   0.0512821
        k(   32) = (   0.0000000   0.7500000   0.7500000), wk =   0.0512821
        k(   33) = (  -0.0714286   0.7142857   0.7142857), wk =   0.0512821
        k(   34) = (  -0.1428571   0.6785714   0.6785714), wk =   0.0512821
        k(   35) = (  -0.2142857   0.6428571   0.6428571), wk =   0.0512821
        k(   36) = (  -0.2857143   0.6071429   0.6071429), wk =   0.0512821
        k(   37) = (  -0.3571429   0.5714286   0.5714286), wk =   0.0512821
        k(   38) = (  -0.4285714   0.5357143   0.5357143), wk =   0.0512821
        k(   39) = (  -0.5000000   0.5000000   0.5000000), wk =   0.0512821

     Dense  grid:     6615 G-vectors     FFT dimensions: (  32,  32,  32)

     Estimated max dynamical RAM per process >       4.23 MB

     The potential is recalculated from file :
     /scratch/groups/saraswat/aravind2/qe/silicon.save/charge-density

     Starting wfcs are    8 randomized atomic wfcs

     Band Structure Calculation
     Davidson diagonalization with overlap

     ethr =  1.25E-08,  avg # of iterations = 12.8

     total cpu time spent up to now is        2.3 secs

     End of band structure calculation

          k =-0.5000 0.5000 0.5000 (   832 PWs)   bands (ev):

    -3.6090  -0.9966   4.7367   4.7367   7.3815   9.2664   9.2664  13.4729

          k =-0.4500 0.4500 0.4500 (   835 PWs)   bands (ev):

    -3.7431  -0.8011   4.7545   4.7545   7.4020   9.2861   9.2861  13.5041

          k =-0.4000 0.4000 0.4000 (   841 PWs)   bands (ev):

    -4.0597  -0.3014   4.8080   4.8080   7.4632   9.3392   9.3392  13.5838

          k =-0.3500 0.3500 0.3500 (   839 PWs)   bands (ev):

    -4.4348   0.3771   4.8967   4.8967   7.5638   9.4054   9.4054  13.6315

          k =-0.3000 0.3000 0.3000 (   839 PWs)   bands (ev):

    -4.8023   1.1644   5.0193   5.0193   7.7021   9.4479   9.4479  13.3362

          k =-0.2500 0.2500 0.2500 (   839 PWs)   bands (ev):

    -5.1330   2.0254   5.1731   5.1731   7.8731   9.4153   9.4153  12.6119

          k =-0.2000 0.2000 0.2000 (   842 PWs)   bands (ev):

    -5.4130   2.9359   5.3520   5.3520   8.0674   9.2710   9.2710  11.7602

          k =-0.1500 0.1500 0.1500 (   854 PWs)   bands (ev):

    -5.6353   3.8698   5.5444   5.5444   8.2683   9.0323   9.0323  10.8795

          k =-0.1000 0.1000 0.1000 (   854 PWs)   bands (ev):

    -5.7961   4.7834   5.7291   5.7291   8.4434   8.7679   8.7679  10.0232

          k =-0.0500 0.0500 0.0500 (   869 PWs)   bands (ev):

    -5.8933   5.5670   5.8704   5.8704   8.5241   8.5600   8.5600   9.3251

          k = 0.0000 0.0000 0.0000 (   869 PWs)   bands (ev):

    -5.9259   5.9249   5.9249   5.9249   8.4803   8.4803   8.4803   9.0730

          k = 0.0000 0.0000 0.0909 (   869 PWs)   bands (ev):

    -5.8900   5.6869   5.7798   5.7798   8.3897   8.6685   8.6685   9.3026

          k = 0.0000 0.0000 0.1818 (   865 PWs)   bands (ev):

    -5.7827   5.1174   5.4361   5.4361   8.1507   9.1410   9.1410   9.8070

          k = 0.0000 0.0000 0.2727 (   853 PWs)   bands (ev):

    -5.6042   4.4029   5.0235   5.0235   7.8313   9.7664   9.7664  10.1874

          k = 0.0000 0.0000 0.3636 (   853 PWs)   bands (ev):

    -5.3556   3.6301   4.6107   4.6107   7.4912   9.9700  10.4727  10.4727

          k = 0.0000 0.0000 0.4545 (   841 PWs)   bands (ev):

    -5.0379   2.8332   4.2288   4.2288   7.1709   9.3528  11.2268  11.2268

          k = 0.0000 0.0000 0.5455 (   833 PWs)   bands (ev):

    -4.6529   2.0274   3.8928   3.8928   6.8950   8.6819  12.0116  12.0116

          k = 0.0000 0.0000 0.6364 (   833 PWs)   bands (ev):

    -4.2028   1.2223   3.6110   3.6110   6.6796   8.0694  12.8183  12.8183

          k = 0.0000 0.0000 0.7273 (   834 PWs)   bands (ev):

    -3.6904   0.4264   3.3882   3.3882   6.5357   7.5492  13.6420  13.6420

          k = 0.0000 0.0000 0.8182 (   822 PWs)   bands (ev):

    -3.1193  -0.3514   3.2274   3.2274   6.4715   7.1319  14.4771  14.4771

          k = 0.0000 0.0000 0.9091 (   818 PWs)   bands (ev):

    -2.4938  -1.1029   3.1302   3.1302   6.4935   6.8189  15.2961  15.2962

          k = 0.0000 0.0000 1.0000 (   806 PWs)   bands (ev):

    -1.8195  -1.8195   3.0978   3.0978   6.6076   6.6076  15.8300  15.8300

          k =-0.0000 0.0833 1.0000 (   824 PWs)   bands (ev):

    -1.8095  -1.8095   3.0089   3.0089   6.7718   6.7718  15.5425  15.5425

          k = 0.0000 0.1667 1.0000 (   824 PWs)   bands (ev):

    -1.7813  -1.7813   2.7908   2.7908   7.2179   7.2179  14.6964  14.6964

          k = 0.0000 0.2500 1.0000 (   828 PWs)   bands (ev):

    -1.7412  -1.7412   2.5328   2.5328   7.8598   7.8598  13.6551  13.6551

          k =-0.0000 0.3333 1.0000 (   832 PWs)   bands (ev):

    -1.6991  -1.6991   2.3048   2.3048   8.6313   8.6313  12.5919  12.5919

          k = 0.0000 0.4167 1.0000 (   832 PWs)   bands (ev):

    -1.6669  -1.6669   2.1511   2.1511   9.4800   9.4800  11.5692  11.5692

          k = 0.0000 0.5000 1.0000 (   848 PWs)   bands (ev):

    -1.6549  -1.6549   2.0970   2.0970  10.1398  10.1398  10.8509  10.8509

          k = 0.0000 0.5625 0.9375 (   840 PWs)   bands (ev):

    -1.9037  -1.4291   1.9049   2.4073   9.2357  10.1722  11.3214  11.3906

          k = 0.0000 0.6250 0.8750 (   829 PWs)   bands (ev):

    -2.0821  -1.3059   1.7638   2.8587   8.2083  10.0869  12.0045  12.2575

          k = 0.0000 0.6875 0.8125 (   830 PWs)   bands (ev):

    -2.1894  -1.2513   1.6777   3.3124   7.4180  10.0201  12.7397  13.1839

          k = 0.0000 0.7500 0.7500 (   824 PWs)   bands (ev):

    -2.2252  -1.2366   1.6488   3.5220   7.0989   9.9963  13.3094  13.7951

          k =-0.0714 0.7143 0.7143 (   831 PWs)   bands (ev):

    -2.4915  -1.0020   1.6399   3.6638   7.2696  10.7373  12.6262  12.8094

          k =-0.1429 0.6786 0.6786 (   833 PWs)   bands (ev):

    -2.8076  -0.8384   1.9042   3.8493   7.5029  11.3963  11.7852  11.9301

          k =-0.2143 0.6429 0.6429 (   833 PWs)   bands (ev):

    -3.0881  -0.8135   2.4189   4.0673   7.7776  10.7003  10.9918  12.5054

          k =-0.2857 0.6071 0.6071 (   833 PWs)   bands (ev):

    -3.3133  -0.8640   3.0866   4.2993   8.0308   9.8323  10.3013  13.3588

          k =-0.3571 0.5714 0.5714 (   837 PWs)   bands (ev):

    -3.4769  -0.9299   3.8052   4.5161   8.0440   9.2695   9.7533  13.8397

          k =-0.4286 0.5357 0.5357 (   835 PWs)   bands (ev):

    -3.5759  -0.9789   4.4442   4.6765   7.6425   9.2160   9.3932  13.6179

          k =-0.5000 0.5000 0.5000 (   832 PWs)   bands (ev):

    -3.6090  -0.9966   4.7367   4.7367   7.3815   9.2664   9.2664  13.4729

     Writing output data file /scratch/groups/saraswat/aravind2/qe/silicon.save/
 
     init_run     :      0.04s CPU      0.06s WALL (       1 calls)
     electrons    :      1.94s CPU      1.98s WALL (       1 calls)

     Called by init_run:
     wfcinit      :      0.00s CPU      0.00s WALL (       1 calls)
     potinit      :      0.01s CPU      0.01s WALL (       1 calls)
     hinit0       :      0.02s CPU      0.02s WALL (       1 calls)

     Called by electrons:
     c_bands      :      1.94s CPU      1.98s WALL (       1 calls)
     v_of_rho     :      0.00s CPU      0.00s WALL (       1 calls)

     Called by c_bands:
     init_us_2    :      0.00s CPU      0.00s WALL (      39 calls)
     cegterg      :      1.75s CPU      1.77s WALL (      39 calls)

     Called by sum_band:

     Called by *egterg:
     h_psi        :      1.70s CPU      1.72s WALL (     577 calls)
     g_psi        :      0.01s CPU      0.01s WALL (     499 calls)
     cdiaghg      :      0.07s CPU      0.07s WALL (     538 calls)

     Called by h_psi:
     h_psi:calbec :      0.02s CPU      0.02s WALL (     577 calls)
     vloc_psi     :      1.67s CPU      1.69s WALL (     577 calls)
     add_vuspsi   :      0.01s CPU      0.01s WALL (     577 calls)

     General routines
     calbec       :      0.01s CPU      0.01s WALL (     577 calls)
     fft          :      0.00s CPU      0.01s WALL (       3 calls)
     fftw         :      1.44s CPU      1.46s WALL (    6604 calls)
     davcio       :      0.00s CPU      0.01s WALL (      78 calls)
 
     Parallel routines
 
     PWSCF        :      2.16s CPU      2.84s WALL

 
   This run was terminated on:   2:31:21  31May2020            

=------------------------------------------------------------------------------=
   JOB DONE.
=------------------------------------------------------------------------------=
