
     Program PWSCF v.6.0 (svn rev. 13079) starts on 16Dec2016 at 18:48:17 

     This program is part of the open-source Quantum ESPRESSO suite
     for quantum simulation of materials; please cite
         "P. Giannozzi et al., J. Phys.:Condens. Matter 21 395502 (2009);
          URL http://www.quantum-espresso.org", 
     in publications or presentations arising from this work. More details at
     http://www.quantum-espresso.org/quote

     Parallel version (MPI), running on     2 processors
     R & G space division:  proc/nbgrp/npool/nimage =       2
     Waiting for input...
     Reading input from standard input

     Current dimensions of program PWSCF are:
     Max number of different atomic species (ntypx) = 10
     Max number of k-points (npk) =  40000
     Max angular momentum in pseudopotentials (lmaxx) =  3
               file H.pz-vbc.UPF: wavefunction(s)  1S renormalized

     gamma-point specific algorithms are used

     Subspace diagonalization in iterative solution of the eigenvalue problem:
     a serial algorithm will be used

 
     Parallelization info
     --------------------
     sticks:   dense  smooth     PW     G-vecs:    dense   smooth      PW
     Min        6525    6525   1631               464871   464871   58062
     Max        6528    6528   1634               464872   464872   58063
     Sum       13053   13053   3265               929743   929743  116125
 


     bravais-lattice index     =            6
     lattice parameter (alat)  =      32.0000  a.u.
     unit-cell volume          =   27197.4400 (a.u.)^3
     number of atoms/cell      =           12
     number of atomic types    =            2
     number of electrons       =        30.00
     number of Kohn-Sham states=           20
     kinetic-energy cutoff     =      40.0000  Ry
     charge density cutoff     =     160.0000  Ry
     convergence threshold     =      1.0E-08
     mixing beta               =       0.6000
     number of iterations used =            8  plain     mixing
     Exchange-correlation      =  SLA  PZ   NOGX NOGC ( 1  1  0  0 0 0)

     celldm(1)=  32.000000  celldm(2)=   0.000000  celldm(3)=   0.830000
     celldm(4)=   0.000000  celldm(5)=   0.000000  celldm(6)=   0.000000

     crystal axes: (cart. coord. in units of alat)
               a(1) = (   1.000000   0.000000   0.000000 )  
               a(2) = (   0.000000   1.000000   0.000000 )  
               a(3) = (   0.000000   0.000000   0.830000 )  

     reciprocal axes: (cart. coord. in units 2 pi/alat)
               b(1) = (  1.000000  0.000000  0.000000 )  
               b(2) = (  0.000000  1.000000  0.000000 )  
               b(3) = (  0.000000  0.000000  1.204819 )  


     PseudoPot. # 1 for H  read from file:
     ./H.pz-vbc.UPF
     MD5 check sum: 90becb985b714f09656c73597998d266
     Pseudo is Norm-conserving, Zval =  1.0
     Generated by new atomic code, or converted to UPF format
     Using radial grid of  131 points,  0 beta functions with: 

     PseudoPot. # 2 for C  read from file:
     ./C.pz-vbc.UPF
     MD5 check sum: ab53dd623bfeb79c5a7b057bc96eae20
     Pseudo is Norm-conserving, Zval =  4.0
     Generated by new atomic code, or converted to UPF format
     Using radial grid of  269 points,  1 beta functions with: 
                l(1) =   0

     atomic species   valence    mass     pseudopotential
        H              1.00     1.00000     H ( 1.00)
        C              4.00    12.01000     C ( 1.00)

     No symmetry found



   Cartesian axes

     site n.     atom                  positions (alat units)
         1           C   tau(   1) = (   0.3326627   0.3732718   0.2952697  )
         2           C   tau(   2) = (   0.4043454   0.4973890   0.2952697  )
         3           C   tau(   3) = (   0.4760191   0.4560089   0.2952697  )
         4           C   tau(   4) = (   0.4760166   0.3732585   0.2952697  )
         5           C   tau(   5) = (   0.4043364   0.3318871   0.2952697  )
         6           C   tau(   6) = (   0.3326674   0.4560225   0.2952697  )
         7           H   tau(   7) = (   0.4043574   0.5617361   0.2952697  )
         8           H   tau(   8) = (   0.5317432   0.4881776   0.2952697  )
         9           H   tau(   9) = (   0.5317393   0.3410894   0.2952697  )
        10           H   tau(  10) = (   0.4043332   0.2675452   0.2952697  )
        11           H   tau(  11) = (   0.2769368   0.3411096   0.2952697  )
        12           H   tau(  12) = (   0.2769507   0.4882003   0.2952697  )

     number of k points=     1
                       cart. coord. in units 2pi/alat
        k(    1) = (   0.0000000   0.0000000   0.0000000), wk =   2.0000000

     Dense  grid:   464872 G-vectors     FFT dimensions: ( 135, 135, 108)

     Estimated max dynamical RAM per process >     211.30Mb

     Estimated total allocated dynamical RAM >     422.61Mb

     Initial potential from superposition of free atoms
     Check: negative starting charge=   -0.032124

     starting charge   29.99967, renormalised to   30.00000

     negative rho (up, down):  3.212E-02 0.000E+00
     Starting wfc are   30 randomized atomic wfcs

     total cpu time spent up to now is        1.4 secs

     per-process dynamical memory:   143.4 Mb

     Self-consistent Calculation

     iteration #  1     ecut=    40.00 Ry     beta=0.60
     Davidson diagonalization with overlap
     ethr =  1.00E-02,  avg # of iterations =  4.0

     negative rho (up, down):  1.258E-02 0.000E+00

     total cpu time spent up to now is        3.3 secs

     total energy              =     -74.51437749 Ry
     Harris-Foulkes estimate   =     -75.46941293 Ry
     estimated scf accuracy    <       1.51891701 Ry

     iteration #  2     ecut=    40.00 Ry     beta=0.60
     Davidson diagonalization with overlap
     ethr =  5.06E-03,  avg # of iterations =  2.0

     negative rho (up, down):  6.316E-03 0.000E+00

     total cpu time spent up to now is        5.0 secs

     total energy              =     -74.80740034 Ry
     Harris-Foulkes estimate   =     -74.92613873 Ry
     estimated scf accuracy    <       0.21451724 Ry

     iteration #  3     ecut=    40.00 Ry     beta=0.60
     Davidson diagonalization with overlap
     ethr =  7.15E-04,  avg # of iterations =  8.0

     negative rho (up, down):  1.278E-03 0.000E+00

     total cpu time spent up to now is        6.8 secs

     total energy              =     -74.85175155 Ry
     Harris-Foulkes estimate   =     -74.85982407 Ry
     estimated scf accuracy    <       0.01648405 Ry

     iteration #  4     ecut=    40.00 Ry     beta=0.60
     Davidson diagonalization with overlap
     ethr =  5.49E-05,  avg # of iterations =  7.0

     negative rho (up, down):  2.483E-04 0.000E+00

     total cpu time spent up to now is        8.6 secs

     total energy              =     -74.85443744 Ry
     Harris-Foulkes estimate   =     -74.85448490 Ry
     estimated scf accuracy    <       0.00023349 Ry

     iteration #  5     ecut=    40.00 Ry     beta=0.60
     Davidson diagonalization with overlap
     ethr =  7.78E-07,  avg # of iterations =  7.0

     negative rho (up, down):  2.026E-07 0.000E+00

     total cpu time spent up to now is       10.4 secs

     total energy              =     -74.85446172 Ry
     Harris-Foulkes estimate   =     -74.85446424 Ry
     estimated scf accuracy    <       0.00001393 Ry

     iteration #  6     ecut=    40.00 Ry     beta=0.60
     Davidson diagonalization with overlap
     ethr =  4.64E-08,  avg # of iterations =  2.0

     total cpu time spent up to now is       11.9 secs

     total energy              =     -74.85446422 Ry
     Harris-Foulkes estimate   =     -74.85446450 Ry
     estimated scf accuracy    <       0.00000118 Ry

     iteration #  7     ecut=    40.00 Ry     beta=0.60
     Davidson diagonalization with overlap
     ethr =  3.93E-09,  avg # of iterations =  2.0

     total cpu time spent up to now is       13.4 secs

     total energy              =     -74.85446436 Ry
     Harris-Foulkes estimate   =     -74.85446439 Ry
     estimated scf accuracy    <       0.00000006 Ry

     iteration #  8     ecut=    40.00 Ry     beta=0.60
     Davidson diagonalization with overlap
     ethr =  2.00E-10,  avg # of iterations =  2.0

     total cpu time spent up to now is       14.8 secs

     End of self-consistent calculation

          k = 0.0000 0.0000 0.0000 ( 58063 PWs)   bands (ev):

   -21.0314 -18.2544 -18.2527 -14.7154 -14.7145 -12.8536 -11.0182 -10.9287
   -10.1382 -10.1355  -9.1097  -8.1256  -8.1252  -6.3600  -6.3584  -1.2440
    -1.2428  -0.4093   0.1779   0.3011

     highest occupied, lowest unoccupied level (ev):    -6.3584   -1.2440

!    total energy              =     -74.85446438 Ry
     Harris-Foulkes estimate   =     -74.85446438 Ry
     estimated scf accuracy    <          5.1E-09 Ry

     The total energy is the sum of the following terms:

     one-electron contribution =    -351.08689943 Ry
     hartree contribution      =     178.35355641 Ry
     xc contribution           =     -24.55628253 Ry
     ewald contribution        =     122.43516117 Ry

     convergence has been achieved in   8 iterations

     Writing output data file Benzene.save
 
     init_run     :      1.28s CPU      1.34s WALL (       1 calls)
     electrons    :     13.45s CPU     13.53s WALL (       1 calls)

     Called by init_run:
     wfcinit      :      0.64s CPU      0.69s WALL (       1 calls)
     potinit      :      0.28s CPU      0.29s WALL (       1 calls)

     Called by electrons:
     c_bands      :     10.02s CPU     10.06s WALL (       8 calls)
     sum_band     :      2.17s CPU      2.19s WALL (       8 calls)
     v_of_rho     :      0.68s CPU      0.69s WALL (       9 calls)
     mix_rho      :      0.49s CPU      0.50s WALL (       8 calls)

     Called by c_bands:
     init_us_2    :      0.04s CPU      0.05s WALL (      17 calls)
     regterg      :      9.98s CPU     10.02s WALL (       8 calls)

     Called by sum_band:

     Called by *egterg:
     h_psi        :      9.61s CPU      9.65s WALL (      43 calls)
     g_psi        :      0.10s CPU      0.10s WALL (      34 calls)
     rdiaghg      :      0.03s CPU      0.04s WALL (      42 calls)

     Called by h_psi:
     h_psi:pot    :      9.55s CPU      9.59s WALL (      43 calls)
     h_psi:calbec :      0.05s CPU      0.05s WALL (      43 calls)
     vloc_psi     :      9.45s CPU      9.49s WALL (      43 calls)
     add_vuspsi   :      0.05s CPU      0.05s WALL (      43 calls)

     General routines
     calbec       :      0.05s CPU      0.05s WALL (      43 calls)
     fft          :      0.98s CPU      0.98s WALL (      35 calls)
     fftw         :      9.68s CPU      9.73s WALL (     582 calls)
     davcio       :      0.00s CPU      0.00s WALL (       1 calls)
 
     Parallel routines
     fft_scatter  :      1.75s CPU      1.77s WALL (     617 calls)
 
     PWSCF        :    14.85s CPU        15.01s WALL

 
   This run was terminated on:  18:48:32  16Dec2016            

=------------------------------------------------------------------------------=
   JOB DONE.
=------------------------------------------------------------------------------=
