
     Program PWSCF v.6.5 starts on 30May2020 at 20: 0:35 

     This program is part of the open-source Quantum ESPRESSO suite
     for quantum simulation of materials; please cite
         "P. Giannozzi et al., J. Phys.:Condens. Matter 21 395502 (2009);
         "P. Giannozzi et al., J. Phys.:Condens. Matter 29 465901 (2017);
          URL http://www.quantum-espresso.org", 
     in publications or presentations arising from this work. More details at
     http://www.quantum-espresso.org/quote

     Parallel version (MPI), running on     1 processors

     MPI processes distributed on     1 nodes
     Reading input from pw.si.scf.in
     Message from routine read_cards :
     DEPRECATED: no units specified in ATOMIC_POSITIONS card
     Message from routine read_cards :
     ATOMIC_POSITIONS: units set to alat

     Current dimensions of program PWSCF are:
     Max number of different atomic species (ntypx) = 10
     Max number of k-points (npk) =  40000
     Max angular momentum in pseudopotentials (lmaxx) =  3

     Subspace diagonalization in iterative solution of the eigenvalue problem:
     a serial algorithm will be used

 
     G-vector sticks info
     --------------------
     sticks:   dense  smooth     PW     G-vecs:    dense   smooth      PW
     Sum         451     451    151                 6423     6423    1243
 


     bravais-lattice index     =            2
     lattice parameter (alat)  =      10.2000  a.u.
     unit-cell volume          =     265.3020 (a.u.)^3
     number of atoms/cell      =            2
     number of atomic types    =            1
     number of electrons       =         8.00
     number of Kohn-Sham states=            4
     kinetic-energy cutoff     =      32.0000  Ry
     charge density cutoff     =     128.0000  Ry
     convergence threshold     =      1.0E-06
     mixing beta               =       0.7000
     number of iterations used =            8  plain     mixing
     Exchange-correlation= SLA PZ NOGX NOGC
                           (   1   1   0   0   0   0   0)

     celldm(1)=  10.200000  celldm(2)=   0.000000  celldm(3)=   0.000000
     celldm(4)=   0.000000  celldm(5)=   0.000000  celldm(6)=   0.000000

     crystal axes: (cart. coord. in units of alat)
               a(1) = (  -0.500000   0.000000   0.500000 )  
               a(2) = (   0.000000   0.500000   0.500000 )  
               a(3) = (  -0.500000   0.500000   0.000000 )  

     reciprocal axes: (cart. coord. in units 2 pi/alat)
               b(1) = ( -1.000000 -1.000000  1.000000 )  
               b(2) = (  1.000000  1.000000  1.000000 )  
               b(3) = ( -1.000000  1.000000 -1.000000 )  


     PseudoPot. # 1 for Si read from file:
     /home/groups/saraswat/qe-6.5/pseudo/Si.pz-vbc.UPF
     MD5 check sum: 9f25e6ff280f3123e9b3a84715b2e9c9
     Pseudo is Norm-conserving, Zval =  4.0
     Generated by new atomic code, or converted to UPF format
     Using radial grid of  431 points,  2 beta functions with: 
                l(1) =   0
                l(2) =   1

     atomic species   valence    mass     pseudopotential
        Si             4.00    28.08600     Si( 1.00)

     48 Sym. Ops., with inversion, found (24 have fractional translation)



   Cartesian axes

     site n.     atom                  positions (alat units)
         1           Si  tau(   1) = (   0.0000000   0.0000000   0.0000000  )
         2           Si  tau(   2) = (   0.2500000   0.2500000   0.2500000  )

     number of k points=    10
                       cart. coord. in units 2pi/alat
        k(    1) = (  -0.1250000   0.1250000   0.1250000), wk =   0.0625000
        k(    2) = (  -0.3750000   0.3750000  -0.1250000), wk =   0.1875000
        k(    3) = (   0.3750000  -0.3750000   0.6250000), wk =   0.1875000
        k(    4) = (   0.1250000  -0.1250000   0.3750000), wk =   0.1875000
        k(    5) = (  -0.1250000   0.6250000   0.1250000), wk =   0.1875000
        k(    6) = (   0.6250000  -0.1250000   0.8750000), wk =   0.3750000
        k(    7) = (   0.3750000   0.1250000   0.6250000), wk =   0.3750000
        k(    8) = (  -0.1250000  -0.8750000   0.1250000), wk =   0.1875000
        k(    9) = (  -0.3750000   0.3750000   0.3750000), wk =   0.0625000
        k(   10) = (   0.3750000  -0.3750000   1.1250000), wk =   0.1875000

     Dense  grid:     6423 G-vectors     FFT dimensions: (  32,  32,  32)

     Estimated max dynamical RAM per process >       6.10 MB

     Initial potential from superposition of free atoms

     starting charge    7.99901, renormalised to    8.00000
     Starting wfcs are    8 randomized atomic wfcs

     total cpu time spent up to now is        0.2 secs

     Self-consistent Calculation

     iteration #  1     ecut=    32.00 Ry     beta= 0.70
     Davidson diagonalization with overlap
     ethr =  1.00E-02,  avg # of iterations =  2.0

     Threshold (ethr) on eigenvalues was too large:
     Diagonalizing with lowered threshold

     Davidson diagonalization with overlap
     ethr =  7.94E-04,  avg # of iterations =  1.0

     total cpu time spent up to now is        0.4 secs

     total energy              =     -15.84887512 Ry
     Harris-Foulkes estimate   =     -15.86992579 Ry
     estimated scf accuracy    <       0.06197771 Ry

     iteration #  2     ecut=    32.00 Ry     beta= 0.70
     Davidson diagonalization with overlap
     ethr =  7.75E-04,  avg # of iterations =  1.0

     total cpu time spent up to now is        0.5 secs

     total energy              =     -15.85197568 Ry
     Harris-Foulkes estimate   =     -15.85227114 Ry
     estimated scf accuracy    <       0.00215691 Ry

     iteration #  3     ecut=    32.00 Ry     beta= 0.70
     Davidson diagonalization with overlap
     ethr =  2.70E-05,  avg # of iterations =  2.5

     total cpu time spent up to now is        0.6 secs

     total energy              =     -15.85242407 Ry
     Harris-Foulkes estimate   =     -15.85245625 Ry
     estimated scf accuracy    <       0.00007366 Ry

     iteration #  4     ecut=    32.00 Ry     beta= 0.70
     Davidson diagonalization with overlap
     ethr =  9.21E-07,  avg # of iterations =  2.3

     total cpu time spent up to now is        0.7 secs

     total energy              =     -15.85244385 Ry
     Harris-Foulkes estimate   =     -15.85244755 Ry
     estimated scf accuracy    <       0.00000798 Ry

     iteration #  5     ecut=    32.00 Ry     beta= 0.70
     Davidson diagonalization with overlap
     ethr =  9.98E-08,  avg # of iterations =  2.0

     total cpu time spent up to now is        0.8 secs

     End of self-consistent calculation

          k =-0.1250 0.1250 0.1250 (   824 PWs)   bands (ev):

    -5.6129   4.6301   5.9371   5.9371

          k =-0.3750 0.3750-0.1250 (   814 PWs)   bands (ev):

    -4.5477   1.5812   3.8794   5.4482

          k = 0.3750-0.3750 0.6250 (   812 PWs)   bands (ev):

    -3.3452  -0.5911   3.9219   4.6441

          k = 0.1250-0.1250 0.3750 (   816 PWs)   bands (ev):

    -5.0665   3.0043   4.8881   4.9753

          k =-0.1250 0.6250 0.1250 (   818 PWs)   bands (ev):

    -3.9981   1.2985   3.5068   3.9828

          k = 0.6250-0.1250 0.8750 (   806 PWs)   bands (ev):

    -2.2824  -0.7128   2.0722   3.2030

          k = 0.3750 0.1250 0.6250 (   810 PWs)   bands (ev):

    -3.5598   0.3651   2.8471   4.2638

          k =-0.1250-0.8750 0.1250 (   802 PWs)   bands (ev):

    -2.4718  -0.6042   2.7162   3.4998

          k =-0.3750 0.3750 0.3750 (   817 PWs)   bands (ev):

    -4.0920   0.2239   5.1297   5.1297

          k = 0.3750-0.3750 1.1250 (   807 PWs)   bands (ev):

    -2.8340  -0.4470   2.1536   4.3127

     highest occupied level (ev):     5.9371

!    total energy              =     -15.85244514 Ry
     Harris-Foulkes estimate   =     -15.85244519 Ry
     estimated scf accuracy    <       0.00000010 Ry

     The total energy is the sum of the following terms:

     one-electron contribution =       4.78569635 Ry
     hartree contribution      =       1.07876407 Ry
     xc contribution           =      -4.81714695 Ry
     ewald contribution        =     -16.89975862 Ry

     convergence has been achieved in   5 iterations

     Writing output data file /scratch/groups/saraswat/aravind2/qe/graphene/silicon.save/
 
     init_run     :      0.09s CPU      0.11s WALL (       1 calls)
     electrons    :      0.57s CPU      0.61s WALL (       1 calls)

     Called by init_run:
     wfcinit      :      0.06s CPU      0.06s WALL (       1 calls)
     potinit      :      0.00s CPU      0.01s WALL (       1 calls)
     hinit0       :      0.02s CPU      0.02s WALL (       1 calls)

     Called by electrons:
     c_bands      :      0.45s CPU      0.46s WALL (       6 calls)
     sum_band     :      0.10s CPU      0.10s WALL (       6 calls)
     v_of_rho     :      0.01s CPU      0.01s WALL (       6 calls)
     mix_rho      :      0.00s CPU      0.01s WALL (       6 calls)

     Called by c_bands:
     init_us_2    :      0.02s CPU      0.02s WALL (     130 calls)
     cegterg      :      0.44s CPU      0.44s WALL (      60 calls)

     Called by sum_band:

     Called by *egterg:
     h_psi        :      0.46s CPU      0.46s WALL (     178 calls)
     g_psi        :      0.00s CPU      0.00s WALL (     108 calls)
     cdiaghg      :      0.01s CPU      0.01s WALL (     158 calls)

     Called by h_psi:
     h_psi:calbec :      0.01s CPU      0.01s WALL (     178 calls)
     vloc_psi     :      0.45s CPU      0.45s WALL (     178 calls)
     add_vuspsi   :      0.00s CPU      0.00s WALL (     178 calls)

     General routines
     calbec       :      0.00s CPU      0.00s WALL (     178 calls)
     fft          :      0.00s CPU      0.01s WALL (      18 calls)
     ffts         :      0.00s CPU      0.00s WALL (       6 calls)
     fftw         :      0.44s CPU      0.44s WALL (    1656 calls)
 
     Parallel routines
 
     PWSCF        :      0.74s CPU      1.12s WALL

 
   This run was terminated on:  20: 0:36  30May2020            

=------------------------------------------------------------------------------=
   JOB DONE.
=------------------------------------------------------------------------------=
