
     Program PWSCF v.6.0 (svn rev. 13079) starts on 19Dec2016 at 19:56:45 

     This program is part of the open-source Quantum ESPRESSO suite
     for quantum simulation of materials; please cite
         "P. Giannozzi et al., J. Phys.:Condens. Matter 21 395502 (2009);
          URL http://www.quantum-espresso.org", 
     in publications or presentations arising from this work. More details at
     http://www.quantum-espresso.org/quote

     Parallel version (MPI), running on     4 processors
     R & G space division:  proc/nbgrp/npool/nimage =       4
     Waiting for input...
     Reading input from standard input

     Current dimensions of program PWSCF are:
     Max number of different atomic species (ntypx) = 10
     Max number of k-points (npk) =  40000
     Max angular momentum in pseudopotentials (lmaxx) =  3
               file H.pz-vbc.UPF: wavefunction(s)  1S renormalized

     gamma-point specific algorithms are used

     Subspace diagonalization in iterative solution of the eigenvalue problem:
     a serial algorithm will be used

 
     Parallelization info
     --------------------
     sticks:   dense  smooth     PW     G-vecs:    dense   smooth      PW
     Min        3261    3261    815               232435   232435   29030
     Max        3264    3264    818               232436   232436   29032
     Sum       13053   13053   3265               929743   929743  116125
 


     bravais-lattice index     =            6
     lattice parameter (alat)  =      32.0000  a.u.
     unit-cell volume          =   27197.4400 (a.u.)^3
     number of atoms/cell      =           12
     number of atomic types    =            2
     number of electrons       =        30.00
     number of Kohn-Sham states=           20
     kinetic-energy cutoff     =      40.0000  Ry
     charge density cutoff     =     160.0000  Ry
     convergence threshold     =      1.0E-08
     mixing beta               =       0.6000
     number of iterations used =            8  plain     mixing
     Exchange-correlation      =  SLA  PZ   NOGX NOGC ( 1  1  0  0 0 0)

     celldm(1)=  32.000000  celldm(2)=   0.000000  celldm(3)=   0.830000
     celldm(4)=   0.000000  celldm(5)=   0.000000  celldm(6)=   0.000000

     crystal axes: (cart. coord. in units of alat)
               a(1) = (   1.000000   0.000000   0.000000 )  
               a(2) = (   0.000000   1.000000   0.000000 )  
               a(3) = (   0.000000   0.000000   0.830000 )  

     reciprocal axes: (cart. coord. in units 2 pi/alat)
               b(1) = (  1.000000  0.000000  0.000000 )  
               b(2) = (  0.000000  1.000000  0.000000 )  
               b(3) = (  0.000000  0.000000  1.204819 )  


     PseudoPot. # 1 for H  read from file:
     ./H.pz-vbc.UPF
     MD5 check sum: 90becb985b714f09656c73597998d266
     Pseudo is Norm-conserving, Zval =  1.0
     Generated by new atomic code, or converted to UPF format
     Using radial grid of  131 points,  0 beta functions with: 

     PseudoPot. # 2 for C  read from file:
     ./C.pz-vbc.UPF
     MD5 check sum: ab53dd623bfeb79c5a7b057bc96eae20
     Pseudo is Norm-conserving, Zval =  4.0
     Generated by new atomic code, or converted to UPF format
     Using radial grid of  269 points,  1 beta functions with: 
                l(1) =   0

     atomic species   valence    mass     pseudopotential
        H              1.00     1.00000     H ( 1.00)
        C              4.00    12.01000     C ( 1.00)

     No symmetry found



   Cartesian axes

     site n.     atom                  positions (alat units)
         1           C   tau(   1) = (   0.3326627   0.3732718   0.2952697  )
         2           C   tau(   2) = (   0.4043454   0.4973890   0.2952697  )
         3           C   tau(   3) = (   0.4760191   0.4560089   0.2952697  )
         4           C   tau(   4) = (   0.4760166   0.3732585   0.2952697  )
         5           C   tau(   5) = (   0.4043364   0.3318871   0.2952697  )
         6           C   tau(   6) = (   0.3326674   0.4560225   0.2952697  )
         7           H   tau(   7) = (   0.4043574   0.5617361   0.2952697  )
         8           H   tau(   8) = (   0.5317432   0.4881776   0.2952697  )
         9           H   tau(   9) = (   0.5317393   0.3410894   0.2952697  )
        10           H   tau(  10) = (   0.4043332   0.2675452   0.2952697  )
        11           H   tau(  11) = (   0.2769368   0.3411096   0.2952697  )
        12           H   tau(  12) = (   0.2769507   0.4882003   0.2952697  )

     number of k points=     1
                       cart. coord. in units 2pi/alat
        k(    1) = (   0.0000000   0.0000000   0.0000000), wk =   2.0000000

     Dense  grid:   464872 G-vectors     FFT dimensions: ( 135, 135, 108)

     Estimated max dynamical RAM per process >     105.70Mb

     Estimated total allocated dynamical RAM >     422.80Mb

     Initial potential from superposition of free atoms
     Check: negative starting charge=   -0.032124

     starting charge   29.99967, renormalised to   30.00000

     negative rho (up, down):  3.212E-02 0.000E+00
     Starting wfc are   30 randomized atomic wfcs

     total cpu time spent up to now is        0.9 secs

     per-process dynamical memory:    73.2 Mb

     Self-consistent Calculation

     iteration #  1     ecut=    40.00 Ry     beta=0.60
     Davidson diagonalization with overlap
     ethr =  1.00E-02,  avg # of iterations =  4.0

     negative rho (up, down):  1.258E-02 0.000E+00

     total cpu time spent up to now is        1.9 secs

     total energy              =     -74.51440732 Ry
     Harris-Foulkes estimate   =     -75.46941498 Ry
     estimated scf accuracy    <       1.51890308 Ry

     iteration #  2     ecut=    40.00 Ry     beta=0.60
     Davidson diagonalization with overlap
     ethr =  5.06E-03,  avg # of iterations =  2.0

     negative rho (up, down):  6.315E-03 0.000E+00

     total cpu time spent up to now is        2.8 secs

     total energy              =     -74.80746234 Ry
     Harris-Foulkes estimate   =     -74.92608520 Ry
     estimated scf accuracy    <       0.21432501 Ry

     iteration #  3     ecut=    40.00 Ry     beta=0.60
     Davidson diagonalization with overlap
     ethr =  7.14E-04,  avg # of iterations =  8.0

     negative rho (up, down):  1.278E-03 0.000E+00

     total cpu time spent up to now is        3.9 secs

     total energy              =     -74.85175142 Ry
     Harris-Foulkes estimate   =     -74.85982268 Ry
     estimated scf accuracy    <       0.01648033 Ry

     iteration #  4     ecut=    40.00 Ry     beta=0.60
     Davidson diagonalization with overlap
     ethr =  5.49E-05,  avg # of iterations =  7.0

     negative rho (up, down):  2.486E-04 0.000E+00

     total cpu time spent up to now is        4.9 secs

     total energy              =     -74.85443735 Ry
     Harris-Foulkes estimate   =     -74.85448480 Ry
     estimated scf accuracy    <       0.00023391 Ry

     iteration #  5     ecut=    40.00 Ry     beta=0.60
     Davidson diagonalization with overlap
     ethr =  7.80E-07,  avg # of iterations =  7.0

     negative rho (up, down):  3.407E-07 0.000E+00

     total cpu time spent up to now is        5.9 secs

     total energy              =     -74.85446181 Ry
     Harris-Foulkes estimate   =     -74.85446430 Ry
     estimated scf accuracy    <       0.00001416 Ry

     iteration #  6     ecut=    40.00 Ry     beta=0.60
     Davidson diagonalization with overlap
     ethr =  4.72E-08,  avg # of iterations =  2.0

     total cpu time spent up to now is        6.7 secs

     total energy              =     -74.85446416 Ry
     Harris-Foulkes estimate   =     -74.85446482 Ry
     estimated scf accuracy    <       0.00000168 Ry

     iteration #  7     ecut=    40.00 Ry     beta=0.60
     Davidson diagonalization with overlap
     ethr =  5.58E-09,  avg # of iterations =  2.0

     total cpu time spent up to now is        7.5 secs

     total energy              =     -74.85446433 Ry
     Harris-Foulkes estimate   =     -74.85446444 Ry
     estimated scf accuracy    <       0.00000027 Ry

     iteration #  8     ecut=    40.00 Ry     beta=0.60
     Davidson diagonalization with overlap
     ethr =  8.86E-10,  avg # of iterations =  2.0

     total cpu time spent up to now is        8.3 secs

     End of self-consistent calculation

          k = 0.0000 0.0000 0.0000 ( 58063 PWs)   bands (ev):

   -21.0315 -18.2545 -18.2529 -14.7155 -14.7146 -12.8537 -11.0182 -10.9288
   -10.1381 -10.1356  -9.1098  -8.1257  -8.1252  -6.3600  -6.3586  -1.2441
    -1.2429  -0.4093   0.1778   0.3011

     highest occupied, lowest unoccupied level (ev):    -6.3586   -1.2441

!    total energy              =     -74.85446438 Ry
     Harris-Foulkes estimate   =     -74.85446438 Ry
     estimated scf accuracy    <          7.4E-09 Ry

     The total energy is the sum of the following terms:

     one-electron contribution =    -351.08734902 Ry
     hartree contribution      =     178.35404296 Ry
     xc contribution           =     -24.55631949 Ry
     ewald contribution        =     122.43516117 Ry

     convergence has been achieved in   8 iterations

     Writing output data file Benzene.save
 
     init_run     :      0.82s CPU      0.86s WALL (       1 calls)
     electrons    :      7.35s CPU      7.43s WALL (       1 calls)

     Called by init_run:
     wfcinit      :      0.36s CPU      0.37s WALL (       1 calls)
     potinit      :      0.20s CPU      0.20s WALL (       1 calls)

     Called by electrons:
     c_bands      :      5.37s CPU      5.43s WALL (       8 calls)
     sum_band     :      1.23s CPU      1.23s WALL (       8 calls)
     v_of_rho     :      0.37s CPU      0.37s WALL (       9 calls)
     mix_rho      :      0.30s CPU      0.30s WALL (       8 calls)

     Called by c_bands:
     init_us_2    :      0.02s CPU      0.02s WALL (      17 calls)
     regterg      :      5.35s CPU      5.42s WALL (       8 calls)

     Called by sum_band:

     Called by *egterg:
     h_psi        :      5.15s CPU      5.22s WALL (      43 calls)
     g_psi        :      0.05s CPU      0.05s WALL (      34 calls)
     rdiaghg      :      0.03s CPU      0.03s WALL (      42 calls)

     Called by h_psi:
     h_psi:pot    :      5.11s CPU      5.18s WALL (      43 calls)
     h_psi:calbec :      0.04s CPU      0.03s WALL (      43 calls)
     vloc_psi     :      5.05s CPU      5.12s WALL (      43 calls)
     add_vuspsi   :      0.03s CPU      0.03s WALL (      43 calls)

     General routines
     calbec       :      0.04s CPU      0.03s WALL (      43 calls)
     fft          :      0.57s CPU      0.57s WALL (      35 calls)
     fftw         :      5.03s CPU      5.08s WALL (     576 calls)
     davcio       :      0.00s CPU      0.00s WALL (       1 calls)
 
     Parallel routines
     fft_scatter  :      1.14s CPU      1.16s WALL (     611 calls)
 
     PWSCF        :     8.31s CPU         8.43s WALL

 
   This run was terminated on:  19:56:54  19Dec2016            

=------------------------------------------------------------------------------=
   JOB DONE.
=------------------------------------------------------------------------------=
