### Running on host: sh02-ln01.stanford.edu

     Program PWSCF v.6.5 starts on 31May2020 at  1:53:24 

     This program is part of the open-source Quantum ESPRESSO suite
     for quantum simulation of materials; please cite
         "P. Giannozzi et al., J. Phys.:Condens. Matter 21 395502 (2009);
         "P. Giannozzi et al., J. Phys.:Condens. Matter 29 465901 (2017);
          URL http://www.quantum-espresso.org", 
     in publications or presentations arising from this work. More details at
     http://www.quantum-espresso.org/quote

     Parallel version (MPI), running on     1 processors

     MPI processes distributed on     1 nodes
     Reading input from pw.Si.scf.kpoints-6.in

     Current dimensions of program PWSCF are:
     Max number of different atomic species (ntypx) = 10
     Max number of k-points (npk) =  40000
     Max angular momentum in pseudopotentials (lmaxx) =  3

     Subspace diagonalization in iterative solution of the eigenvalue problem:
     a serial algorithm will be used

 
     G-vector sticks info
     --------------------
     sticks:   dense  smooth     PW     G-vecs:    dense   smooth      PW
     Sum         163     163     61                 1459     1459     339
 


     bravais-lattice index     =            2
     lattice parameter (alat)  =      10.2000  a.u.
     unit-cell volume          =     265.3020 (a.u.)^3
     number of atoms/cell      =            2
     number of atomic types    =            1
     number of electrons       =         8.00
     number of Kohn-Sham states=            4
     kinetic-energy cutoff     =      12.0000  Ry
     charge density cutoff     =      48.0000  Ry
     convergence threshold     =      1.0E-06
     mixing beta               =       0.7000
     number of iterations used =            8  plain     mixing
     Exchange-correlation= SLA PZ NOGX NOGC
                           (   1   1   0   0   0   0   0)

     celldm(1)=  10.200000  celldm(2)=   0.000000  celldm(3)=   0.000000
     celldm(4)=   0.000000  celldm(5)=   0.000000  celldm(6)=   0.000000

     crystal axes: (cart. coord. in units of alat)
               a(1) = (  -0.500000   0.000000   0.500000 )  
               a(2) = (   0.000000   0.500000   0.500000 )  
               a(3) = (  -0.500000   0.500000   0.000000 )  

     reciprocal axes: (cart. coord. in units 2 pi/alat)
               b(1) = ( -1.000000 -1.000000  1.000000 )  
               b(2) = (  1.000000  1.000000  1.000000 )  
               b(3) = ( -1.000000  1.000000 -1.000000 )  


     PseudoPot. # 1 for Si read from file:
     /home/groups/saraswat/qe-6.5/pseudo/Si.pz-vbc.UPF
     MD5 check sum: 9f25e6ff280f3123e9b3a84715b2e9c9
     Pseudo is Norm-conserving, Zval =  4.0
     Generated by new atomic code, or converted to UPF format
     Using radial grid of  431 points,  2 beta functions with: 
                l(1) =   0
                l(2) =   1

     atomic species   valence    mass     pseudopotential
        Si             4.00    28.08600     Si( 1.00)

     48 Sym. Ops., with inversion, found (24 have fractional translation)



   Cartesian axes

     site n.     atom                  positions (alat units)
         1           Si  tau(   1) = (   0.0000000   0.0000000   0.0000000  )
         2           Si  tau(   2) = (   0.2500000   0.2500000   0.2500000  )

     number of k points=    28
                       cart. coord. in units 2pi/alat
        k(    1) = (  -0.0833333   0.0833333   0.0833333), wk =   0.0185185
        k(    2) = (  -0.2500000   0.2500000  -0.0833333), wk =   0.0555556
        k(    3) = (  -0.4166667   0.4166667  -0.2500000), wk =   0.0555556
        k(    4) = (   0.4166667  -0.4166667   0.5833333), wk =   0.0555556
        k(    5) = (   0.2500000  -0.2500000   0.4166667), wk =   0.0555556
        k(    6) = (   0.0833333  -0.0833333   0.2500000), wk =   0.0555556
        k(    7) = (  -0.0833333   0.4166667   0.0833333), wk =   0.0555556
        k(    8) = (  -0.2500000   0.5833333  -0.0833333), wk =   0.1111111
        k(    9) = (   0.5833333  -0.2500000   0.7500000), wk =   0.1111111
        k(   10) = (   0.4166667  -0.0833333   0.5833333), wk =   0.1111111
        k(   11) = (   0.2500000   0.0833333   0.4166667), wk =   0.1111111
        k(   12) = (  -0.0833333   0.7500000   0.0833333), wk =   0.0555556
        k(   13) = (   0.7500000  -0.0833333   0.9166667), wk =   0.1111111
        k(   14) = (   0.5833333   0.0833333   0.7500000), wk =   0.1111111
        k(   15) = (   0.4166667   0.2500000   0.5833333), wk =   0.1111111
        k(   16) = (  -0.0833333  -0.9166667   0.0833333), wk =   0.0555556
        k(   17) = (  -0.2500000  -0.7500000  -0.0833333), wk =   0.1111111
        k(   18) = (  -0.0833333  -0.5833333   0.0833333), wk =   0.0555556
        k(   19) = (  -0.2500000   0.2500000   0.2500000), wk =   0.0185185
        k(   20) = (  -0.4166667   0.4166667   0.0833333), wk =   0.0555556
        k(   21) = (   0.4166667  -0.4166667   0.9166667), wk =   0.0555556
        k(   22) = (   0.2500000  -0.2500000   0.7500000), wk =   0.0555556
        k(   23) = (  -0.2500000   0.5833333   0.2500000), wk =   0.0555556
        k(   24) = (   0.5833333  -0.2500000   1.0833333), wk =   0.1111111
        k(   25) = (   0.4166667  -0.0833333   0.9166667), wk =   0.1111111
        k(   26) = (  -0.2500000  -1.0833333   0.2500000), wk =   0.0555556
        k(   27) = (  -0.4166667   0.4166667   0.4166667), wk =   0.0185185
        k(   28) = (   0.4166667  -0.4166667   1.2500000), wk =   0.0555556

     Dense  grid:     1459 G-vectors     FFT dimensions: (  16,  16,  16)

     Estimated max dynamical RAM per process >       1.42 MB

     Initial potential from superposition of free atoms

     starting charge    7.99901, renormalised to    8.00000
     Starting wfcs are    8 randomized atomic wfcs

     total cpu time spent up to now is        0.1 secs

     Self-consistent Calculation

     iteration #  1     ecut=    12.00 Ry     beta= 0.70
     Davidson diagonalization with overlap
     ethr =  1.00E-02,  avg # of iterations =  2.0

     Threshold (ethr) on eigenvalues was too large:
     Diagonalizing with lowered threshold

     Davidson diagonalization with overlap
     ethr =  7.37E-04,  avg # of iterations =  1.0

     total cpu time spent up to now is        0.2 secs

     total energy              =     -15.80416627 Ry
     Harris-Foulkes estimate   =     -15.82371579 Ry
     estimated scf accuracy    <       0.05908373 Ry

     iteration #  2     ecut=    12.00 Ry     beta= 0.70
     Davidson diagonalization with overlap
     ethr =  7.39E-04,  avg # of iterations =  1.0

     total cpu time spent up to now is        0.3 secs

     total energy              =     -15.80710336 Ry
     Harris-Foulkes estimate   =     -15.80738958 Ry
     estimated scf accuracy    <       0.00210692 Ry

     iteration #  3     ecut=    12.00 Ry     beta= 0.70
     Davidson diagonalization with overlap
     ethr =  2.63E-05,  avg # of iterations =  2.6

     total cpu time spent up to now is        0.3 secs

     total energy              =     -15.80755681 Ry
     Harris-Foulkes estimate   =     -15.80758474 Ry
     estimated scf accuracy    <       0.00006638 Ry

     iteration #  4     ecut=    12.00 Ry     beta= 0.70
     Davidson diagonalization with overlap
     ethr =  8.30E-07,  avg # of iterations =  2.1

     total cpu time spent up to now is        0.4 secs

     total energy              =     -15.80757011 Ry
     Harris-Foulkes estimate   =     -15.80757269 Ry
     estimated scf accuracy    <       0.00000609 Ry

     iteration #  5     ecut=    12.00 Ry     beta= 0.70
     Davidson diagonalization with overlap
     ethr =  7.61E-08,  avg # of iterations =  2.1

     total cpu time spent up to now is        0.4 secs

     End of self-consistent calculation

          k =-0.0833 0.0833 0.0833 (   172 PWs)   bands (ev):

    -5.6100   5.4489   6.1479   6.1479

          k =-0.2500 0.2500-0.0833 (   178 PWs)   bands (ev):

    -5.1358   3.3634   4.8656   5.9259

          k =-0.4167 0.4167-0.2500 (   187 PWs)   bands (ev):

    -4.0163   0.5264   4.3931   5.2604

          k = 0.4167-0.4167 0.5833 (   182 PWs)   bands (ev):

    -3.2703  -0.6610   4.4695   4.8625

          k = 0.2500-0.2500 0.4167 (   186 PWs)   bands (ev):

    -4.4447   1.3984   4.9244   4.9842

          k = 0.0833-0.0833 0.2500 (   174 PWs)   bands (ev):

    -5.3711   4.3933   5.4675   5.6850

          k =-0.0833 0.4167 0.0833 (   180 PWs)   bands (ev):

    -4.8920   3.2177   4.7059   4.7162

          k =-0.2500 0.5833-0.0833 (   188 PWs)   bands (ev):

    -3.9690   1.3383   3.3376   4.3094

          k = 0.5833-0.2500 0.7500 (   187 PWs)   bands (ev):

    -2.7995  -0.4817   2.7372   4.0663

          k = 0.4167-0.0833 0.5833 (   187 PWs)   bands (ev):

    -3.5554   0.6187   2.6756   4.5781

          k = 0.2500 0.0833 0.4167 (   185 PWs)   bands (ev):

    -4.6654   2.3300   4.0612   5.2808

          k =-0.0833 0.7500 0.0833 (   190 PWs)   bands (ev):

    -3.2448   0.5369   3.2851   3.6417

          k = 0.7500-0.0833 0.9167 (   191 PWs)   bands (ev):

    -2.0218  -0.8183   2.4032   3.2144

          k = 0.5833 0.0833 0.7500 (   186 PWs)   bands (ev):

    -2.3709  -0.5125   1.9135   3.7831

          k = 0.4167 0.2500 0.5833 (   184 PWs)   bands (ev):

    -3.4249  -0.1231   3.6738   4.6788

          k =-0.0833-0.9167 0.0833 (   192 PWs)   bands (ev):

    -2.1217  -0.8373   3.0042   3.4195

          k =-0.2500-0.7500-0.0833 (   190 PWs)   bands (ev):

    -3.0721   0.3032   2.7501   3.5659

          k =-0.0833-0.5833 0.0833 (   186 PWs)   bands (ev):

    -4.1777   1.9167   3.8589   4.0767

          k =-0.2500 0.2500 0.2500 (   180 PWs)   bands (ev):

    -4.8958   2.3520   5.5057   5.5057

          k =-0.4167 0.4167 0.0833 (   186 PWs)   bands (ev):

    -4.2086   1.4241   3.3068   5.3276

          k = 0.4167-0.4167 0.9167 (   186 PWs)   bands (ev):

    -2.9884  -0.0209   2.1525   4.5097

          k = 0.2500-0.2500 0.7500 (   186 PWs)   bands (ev):

    -2.9448  -0.0934   2.6568   4.0084

          k =-0.2500 0.5833 0.2500 (   185 PWs)   bands (ev):

    -3.7714   0.5948   3.8106   4.3932

          k = 0.5833-0.2500 1.0833 (   190 PWs)   bands (ev):

    -2.7532  -0.1106   2.2499   3.5618

          k = 0.4167-0.0833 0.9167 (   190 PWs)   bands (ev):

    -1.9001  -0.8307   2.0615   2.8645

          k =-0.2500-1.0833 0.2500 (   184 PWs)   bands (ev):

    -2.0953  -0.7464   1.9317   3.8078

          k =-0.4167 0.4167 0.4167 (   183 PWs)   bands (ev):

    -3.6512  -0.2511   5.1006   5.1006

          k = 0.4167-0.4167 1.2500 (   183 PWs)   bands (ev):

    -3.0377  -0.5373   3.2352   4.6407

     highest occupied level (ev):     6.1479

!    total energy              =     -15.80757094 Ry
     Harris-Foulkes estimate   =     -15.80757095 Ry
     estimated scf accuracy    <       0.00000003 Ry

     The total energy is the sum of the following terms:

     one-electron contribution =       4.83146292 Ry
     hartree contribution      =       1.06609836 Ry
     xc contribution           =      -4.80537363 Ry
     ewald contribution        =     -16.89975858 Ry

     convergence has been achieved in   5 iterations

     Writing output data file /scratch/groups/saraswat/aravind2/qe/silicon.save/
 
     init_run     :      0.05s CPU      0.07s WALL (       1 calls)
     electrons    :      0.29s CPU      0.33s WALL (       1 calls)

     Called by init_run:
     wfcinit      :      0.04s CPU      0.04s WALL (       1 calls)
     potinit      :      0.00s CPU      0.00s WALL (       1 calls)
     hinit0       :      0.01s CPU      0.01s WALL (       1 calls)

     Called by electrons:
     c_bands      :      0.24s CPU      0.26s WALL (       6 calls)
     sum_band     :      0.04s CPU      0.04s WALL (       6 calls)
     v_of_rho     :      0.00s CPU      0.00s WALL (       6 calls)
     mix_rho      :      0.00s CPU      0.00s WALL (       6 calls)

     Called by c_bands:
     init_us_2    :      0.01s CPU      0.01s WALL (     364 calls)
     cegterg      :      0.23s CPU      0.24s WALL (     168 calls)

     Called by sum_band:

     Called by *egterg:
     h_psi        :      0.22s CPU      0.23s WALL (     499 calls)
     g_psi        :      0.00s CPU      0.00s WALL (     303 calls)
     cdiaghg      :      0.02s CPU      0.02s WALL (     443 calls)

     Called by h_psi:
     h_psi:calbec :      0.01s CPU      0.01s WALL (     499 calls)
     vloc_psi     :      0.20s CPU      0.21s WALL (     499 calls)
     add_vuspsi   :      0.00s CPU      0.01s WALL (     499 calls)

     General routines
     calbec       :      0.00s CPU      0.00s WALL (     499 calls)
     fft          :      0.00s CPU      0.00s WALL (      18 calls)
     ffts         :      0.00s CPU      0.00s WALL (       6 calls)
     fftw         :      0.21s CPU      0.22s WALL (    4590 calls)
 
     Parallel routines
 
     PWSCF        :      0.42s CPU      1.36s WALL

 
   This run was terminated on:   1:53:26  31May2020            

=------------------------------------------------------------------------------=
   JOB DONE.
=------------------------------------------------------------------------------=
