### Running on host: sh02-ln01.stanford.edu

     Program PWSCF v.6.5 starts on 31May2020 at  1:53:26 

     This program is part of the open-source Quantum ESPRESSO suite
     for quantum simulation of materials; please cite
         "P. Giannozzi et al., J. Phys.:Condens. Matter 21 395502 (2009);
         "P. Giannozzi et al., J. Phys.:Condens. Matter 29 465901 (2017);
          URL http://www.quantum-espresso.org", 
     in publications or presentations arising from this work. More details at
     http://www.quantum-espresso.org/quote

     Parallel version (MPI), running on     1 processors

     MPI processes distributed on     1 nodes
     Reading input from pw.Si.scf.kpoints-8.in

     Current dimensions of program PWSCF are:
     Max number of different atomic species (ntypx) = 10
     Max number of k-points (npk) =  40000
     Max angular momentum in pseudopotentials (lmaxx) =  3

     Subspace diagonalization in iterative solution of the eigenvalue problem:
     a serial algorithm will be used

 
     G-vector sticks info
     --------------------
     sticks:   dense  smooth     PW     G-vecs:    dense   smooth      PW
     Sum         163     163     61                 1459     1459     339
 


     bravais-lattice index     =            2
     lattice parameter (alat)  =      10.2000  a.u.
     unit-cell volume          =     265.3020 (a.u.)^3
     number of atoms/cell      =            2
     number of atomic types    =            1
     number of electrons       =         8.00
     number of Kohn-Sham states=            4
     kinetic-energy cutoff     =      12.0000  Ry
     charge density cutoff     =      48.0000  Ry
     convergence threshold     =      1.0E-06
     mixing beta               =       0.7000
     number of iterations used =            8  plain     mixing
     Exchange-correlation= SLA PZ NOGX NOGC
                           (   1   1   0   0   0   0   0)

     celldm(1)=  10.200000  celldm(2)=   0.000000  celldm(3)=   0.000000
     celldm(4)=   0.000000  celldm(5)=   0.000000  celldm(6)=   0.000000

     crystal axes: (cart. coord. in units of alat)
               a(1) = (  -0.500000   0.000000   0.500000 )  
               a(2) = (   0.000000   0.500000   0.500000 )  
               a(3) = (  -0.500000   0.500000   0.000000 )  

     reciprocal axes: (cart. coord. in units 2 pi/alat)
               b(1) = ( -1.000000 -1.000000  1.000000 )  
               b(2) = (  1.000000  1.000000  1.000000 )  
               b(3) = ( -1.000000  1.000000 -1.000000 )  


     PseudoPot. # 1 for Si read from file:
     /home/groups/saraswat/qe-6.5/pseudo/Si.pz-vbc.UPF
     MD5 check sum: 9f25e6ff280f3123e9b3a84715b2e9c9
     Pseudo is Norm-conserving, Zval =  4.0
     Generated by new atomic code, or converted to UPF format
     Using radial grid of  431 points,  2 beta functions with: 
                l(1) =   0
                l(2) =   1

     atomic species   valence    mass     pseudopotential
        Si             4.00    28.08600     Si( 1.00)

     48 Sym. Ops., with inversion, found (24 have fractional translation)



   Cartesian axes

     site n.     atom                  positions (alat units)
         1           Si  tau(   1) = (   0.0000000   0.0000000   0.0000000  )
         2           Si  tau(   2) = (   0.2500000   0.2500000   0.2500000  )

     number of k points=    60
                       cart. coord. in units 2pi/alat
        k(    1) = (  -0.0625000   0.0625000   0.0625000), wk =   0.0078125
        k(    2) = (  -0.1875000   0.1875000  -0.0625000), wk =   0.0234375
        k(    3) = (  -0.3125000   0.3125000  -0.1875000), wk =   0.0234375
        k(    4) = (  -0.4375000   0.4375000  -0.3125000), wk =   0.0234375
        k(    5) = (   0.4375000  -0.4375000   0.5625000), wk =   0.0234375
        k(    6) = (   0.3125000  -0.3125000   0.4375000), wk =   0.0234375
        k(    7) = (   0.1875000  -0.1875000   0.3125000), wk =   0.0234375
        k(    8) = (   0.0625000  -0.0625000   0.1875000), wk =   0.0234375
        k(    9) = (  -0.0625000   0.3125000   0.0625000), wk =   0.0234375
        k(   10) = (  -0.1875000   0.4375000  -0.0625000), wk =   0.0468750
        k(   11) = (  -0.3125000   0.5625000  -0.1875000), wk =   0.0468750
        k(   12) = (   0.5625000  -0.3125000   0.6875000), wk =   0.0468750
        k(   13) = (   0.4375000  -0.1875000   0.5625000), wk =   0.0468750
        k(   14) = (   0.3125000  -0.0625000   0.4375000), wk =   0.0468750
        k(   15) = (   0.1875000   0.0625000   0.3125000), wk =   0.0468750
        k(   16) = (  -0.0625000   0.5625000   0.0625000), wk =   0.0234375
        k(   17) = (  -0.1875000   0.6875000  -0.0625000), wk =   0.0468750
        k(   18) = (   0.6875000  -0.1875000   0.8125000), wk =   0.0468750
        k(   19) = (   0.5625000  -0.0625000   0.6875000), wk =   0.0468750
        k(   20) = (   0.4375000   0.0625000   0.5625000), wk =   0.0468750
        k(   21) = (   0.3125000   0.1875000   0.4375000), wk =   0.0468750
        k(   22) = (  -0.0625000   0.8125000   0.0625000), wk =   0.0234375
        k(   23) = (   0.8125000  -0.0625000   0.9375000), wk =   0.0468750
        k(   24) = (   0.6875000   0.0625000   0.8125000), wk =   0.0468750
        k(   25) = (   0.5625000   0.1875000   0.6875000), wk =   0.0468750
        k(   26) = (   0.4375000   0.3125000   0.5625000), wk =   0.0468750
        k(   27) = (  -0.0625000  -0.9375000   0.0625000), wk =   0.0234375
        k(   28) = (  -0.1875000  -0.8125000  -0.0625000), wk =   0.0468750
        k(   29) = (  -0.3125000  -0.6875000  -0.1875000), wk =   0.0468750
        k(   30) = (  -0.0625000  -0.6875000   0.0625000), wk =   0.0234375
        k(   31) = (  -0.1875000  -0.5625000  -0.0625000), wk =   0.0468750
        k(   32) = (  -0.0625000  -0.4375000   0.0625000), wk =   0.0234375
        k(   33) = (  -0.1875000   0.1875000   0.1875000), wk =   0.0078125
        k(   34) = (  -0.3125000   0.3125000   0.0625000), wk =   0.0234375
        k(   35) = (  -0.4375000   0.4375000  -0.0625000), wk =   0.0234375
        k(   36) = (   0.4375000  -0.4375000   0.8125000), wk =   0.0234375
        k(   37) = (   0.3125000  -0.3125000   0.6875000), wk =   0.0234375
        k(   38) = (   0.1875000  -0.1875000   0.5625000), wk =   0.0234375
        k(   39) = (  -0.1875000   0.4375000   0.1875000), wk =   0.0234375
        k(   40) = (  -0.3125000   0.5625000   0.0625000), wk =   0.0468750
        k(   41) = (   0.5625000  -0.3125000   0.9375000), wk =   0.0468750
        k(   42) = (   0.4375000  -0.1875000   0.8125000), wk =   0.0468750
        k(   43) = (   0.3125000  -0.0625000   0.6875000), wk =   0.0468750
        k(   44) = (  -0.1875000   0.6875000   0.1875000), wk =   0.0234375
        k(   45) = (   0.6875000  -0.1875000   1.0625000), wk =   0.0468750
        k(   46) = (   0.5625000  -0.0625000   0.9375000), wk =   0.0468750
        k(   47) = (   0.4375000   0.0625000   0.8125000), wk =   0.0468750
        k(   48) = (  -0.1875000  -1.0625000   0.1875000), wk =   0.0234375
        k(   49) = (  -0.3125000  -0.9375000   0.0625000), wk =   0.0468750
        k(   50) = (  -0.1875000  -0.8125000   0.1875000), wk =   0.0234375
        k(   51) = (  -0.3125000   0.3125000   0.3125000), wk =   0.0078125
        k(   52) = (  -0.4375000   0.4375000   0.1875000), wk =   0.0234375
        k(   53) = (   0.4375000  -0.4375000   1.0625000), wk =   0.0234375
        k(   54) = (   0.3125000  -0.3125000   0.9375000), wk =   0.0234375
        k(   55) = (  -0.3125000   0.5625000   0.3125000), wk =   0.0234375
        k(   56) = (   0.5625000  -0.3125000   1.1875000), wk =   0.0468750
        k(   57) = (   0.4375000  -0.1875000   1.0625000), wk =   0.0468750
        k(   58) = (  -0.3125000  -1.1875000   0.3125000), wk =   0.0234375
        k(   59) = (  -0.4375000   0.4375000   0.4375000), wk =   0.0078125
        k(   60) = (   0.4375000  -0.4375000   1.3125000), wk =   0.0234375

     Dense  grid:     1459 G-vectors     FFT dimensions: (  16,  16,  16)

     Estimated max dynamical RAM per process >       1.78 MB

     Initial potential from superposition of free atoms

     starting charge    7.99901, renormalised to    8.00000
     Starting wfcs are    8 randomized atomic wfcs

     total cpu time spent up to now is        0.2 secs

     Self-consistent Calculation

     iteration #  1     ecut=    12.00 Ry     beta= 0.70
     Davidson diagonalization with overlap
     ethr =  1.00E-02,  avg # of iterations =  2.0

     Threshold (ethr) on eigenvalues was too large:
     Diagonalizing with lowered threshold

     Davidson diagonalization with overlap
     ethr =  7.38E-04,  avg # of iterations =  1.0

     total cpu time spent up to now is        0.4 secs

     total energy              =     -15.80430878 Ry
     Harris-Foulkes estimate   =     -15.82387591 Ry
     estimated scf accuracy    <       0.05911195 Ry

     iteration #  2     ecut=    12.00 Ry     beta= 0.70
     Davidson diagonalization with overlap
     ethr =  7.39E-04,  avg # of iterations =  1.0

     total cpu time spent up to now is        0.5 secs

     total energy              =     -15.80725464 Ry
     Harris-Foulkes estimate   =     -15.80754035 Ry
     estimated scf accuracy    <       0.00210596 Ry

     iteration #  3     ecut=    12.00 Ry     beta= 0.70
     Davidson diagonalization with overlap
     ethr =  2.63E-05,  avg # of iterations =  2.7

     total cpu time spent up to now is        0.6 secs

     total energy              =     -15.80771136 Ry
     Harris-Foulkes estimate   =     -15.80773918 Ry
     estimated scf accuracy    <       0.00006615 Ry

     iteration #  4     ecut=    12.00 Ry     beta= 0.70
     Davidson diagonalization with overlap
     ethr =  8.27E-07,  avg # of iterations =  2.1

     total cpu time spent up to now is        0.8 secs

     total energy              =     -15.80772457 Ry
     Harris-Foulkes estimate   =     -15.80772709 Ry
     estimated scf accuracy    <       0.00000598 Ry

     iteration #  5     ecut=    12.00 Ry     beta= 0.70
     Davidson diagonalization with overlap
     ethr =  7.47E-08,  avg # of iterations =  2.0

     total cpu time spent up to now is        0.9 secs

     End of self-consistent calculation

          k =-0.0625 0.0625 0.0625 (   172 PWs)   bands (ev):

    -5.6502   5.7756   6.2101   6.2101

          k =-0.1875 0.1875-0.0625 (   174 PWs)   bands (ev):

    -5.3810   4.2741   5.3601   6.0844

          k =-0.3125 0.3125-0.1875 (   186 PWs)   bands (ev):

    -4.7270   1.9839   4.8560   5.5968

          k =-0.4375 0.4375-0.3125 (   186 PWs)   bands (ev):

    -3.7767   0.0311   4.6372   5.1704

          k = 0.4375-0.4375 0.5625 (   179 PWs)   bands (ev):

    -3.2685  -0.7125   4.6949   4.9419

          k = 0.3125-0.3125 0.4375 (   184 PWs)   bands (ev):

    -4.1031   0.6158   4.9601   4.9932

          k = 0.1875-0.1875 0.3125 (   184 PWs)   bands (ev):

    -4.9879   2.7354   5.2465   5.4769

          k = 0.0625-0.0625 0.1875 (   174 PWs)   bands (ev):

    -5.5182   5.0369   5.7531   5.9406

          k =-0.0625 0.3125 0.0625 (   176 PWs)   bands (ev):

    -5.2457   4.1680   5.1652   5.2810

          k =-0.1875 0.4375-0.0625 (   186 PWs)   bands (ev):

    -4.7162   2.6317   4.1585   4.9989

          k =-0.3125 0.5625-0.1875 (   187 PWs)   bands (ev):

    -3.8402   0.6991   3.6712   4.5568

          k = 0.5625-0.3125 0.6875 (   185 PWs)   bands (ev):

    -3.0201  -0.5752   3.3824   4.4542

          k = 0.4375-0.1875 0.5625 (   186 PWs)   bands (ev):

    -3.5165   0.1536   3.2942   4.7576

          k = 0.3125-0.0625 0.4375 (   186 PWs)   bands (ev):

    -4.4581   1.9563   3.5805   5.2958

          k = 0.1875 0.0625 0.3125 (   180 PWs)   bands (ev):

    -5.1188   3.4563   4.7547   5.6949

          k =-0.0625 0.5625 0.0625 (   187 PWs)   bands (ev):

    -4.3050   2.1699   4.0045   4.1274

          k =-0.1875 0.6875-0.0625 (   188 PWs)   bands (ev):

    -3.5329   0.9078   3.1804   3.7627

          k = 0.6875-0.1875 0.8125 (   185 PWs)   bands (ev):

    -2.5799  -0.3436   2.3060   3.7312

          k = 0.5625-0.0625 0.6875 (   184 PWs)   bands (ev):

    -2.6427  -0.2558   1.9293   4.0948

          k = 0.4375 0.0625 0.5625 (   187 PWs)   bands (ev):

    -3.5901   0.6978   2.5751   4.7110

          k = 0.3125 0.1875 0.4375 (   187 PWs)   bands (ev):

    -4.3404   1.2990   4.2973   5.1927

          k =-0.0625 0.8125 0.0625 (   193 PWs)   bands (ev):

    -2.8648   0.0224   3.2788   3.5105

          k = 0.8125-0.0625 0.9375 (   190 PWs)   bands (ev):

    -1.9170  -0.9819   2.6859   3.2520

          k = 0.6875 0.0625 0.8125 (   186 PWs)   bands (ev):

    -1.9870  -0.8231   1.9142   3.5821

          k = 0.5625 0.1875 0.6875 (   184 PWs)   bands (ev):

    -2.7545  -0.4922   2.5496   4.2127

          k = 0.4375 0.3125 0.5625 (   185 PWs)   bands (ev):

    -3.3911  -0.3863   4.1304   4.8339

          k =-0.0625-0.9375 0.0625 (   190 PWs)   bands (ev):

    -1.9748  -1.0075   3.1355   3.3853

          k =-0.1875-0.8125-0.0625 (   190 PWs)   bands (ev):

    -2.7677  -0.0351   2.8548   3.4174

          k =-0.3125-0.6875-0.1875 (   189 PWs)   bands (ev):

    -3.2439   0.1613   2.9596   4.0444

          k =-0.0625-0.6875 0.0625 (   188 PWs)   bands (ev):

    -3.6400   1.1015   3.5691   3.7590

          k =-0.1875-0.5625-0.0625 (   186 PWs)   bands (ev):

    -4.1827   1.7959   3.6253   4.3051

          k =-0.0625-0.4375 0.0625 (   182 PWs)   bands (ev):

    -4.8430   3.2126   4.5857   4.6034

          k =-0.1875 0.1875 0.1875 (   172 PWs)   bands (ev):

    -5.2390   3.5273   5.7430   5.7430

          k =-0.3125 0.3125 0.0625 (   182 PWs)   bands (ev):

    -4.8504   2.6934   4.1590   5.7638

          k =-0.4375 0.4375-0.0625 (   186 PWs)   bands (ev):

    -4.0770   1.3012   3.0311   5.2311

          k = 0.4375-0.4375 0.8125 (   183 PWs)   bands (ev):

    -3.1263  -0.2615   2.8997   4.6716

          k = 0.3125-0.3125 0.6875 (   186 PWs)   bands (ev):

    -3.1203  -0.2867   3.2165   4.3372

          k = 0.1875-0.1875 0.5625 (   189 PWs)   bands (ev):

    -4.0679   1.2946   3.8468   4.3076

          k =-0.1875 0.4375 0.1875 (   184 PWs)   bands (ev):

    -4.5847   1.9982   4.7202   4.7471

          k =-0.3125 0.5625 0.0625 (   186 PWs)   bands (ev):

    -3.9408   1.2552   3.0864   4.5486

          k = 0.5625-0.3125 0.9375 (   189 PWs)   bands (ev):

    -3.0136   0.1388   2.2520   3.9430

          k = 0.4375-0.1875 0.8125 (   187 PWs)   bands (ev):

    -2.4939  -0.5063   2.2718   3.6078

          k = 0.3125-0.0625 0.6875 (   189 PWs)   bands (ev):

    -3.3206   0.5570   2.6991   3.8007

          k =-0.1875 0.6875 0.1875 (   189 PWs)   bands (ev):

    -3.4330   0.5992   3.0597   3.9646

          k = 0.6875-0.1875 1.0625 (   191 PWs)   bands (ev):

    -2.6035  -0.1820   2.4316   3.2303

          k = 0.5625-0.0625 0.9375 (   191 PWs)   bands (ev):

    -1.7600  -0.9450   2.0834   2.6981

          k = 0.4375 0.0625 0.8125 (   192 PWs)   bands (ev):

    -2.3820  -0.4073   2.0884   3.2009

          k =-0.1875-1.0625 0.1875 (   188 PWs)   bands (ev):

    -1.9270  -0.9313   2.1948   3.6076

          k =-0.3125-0.9375 0.0625 (   194 PWs)   bands (ev):

    -1.8394  -0.9615   2.2930   2.9323

          k =-0.1875-0.8125 0.1875 (   190 PWs)   bands (ev):

    -2.7014  -0.1551   2.4866   3.7268

          k =-0.3125 0.3125 0.3125 (   183 PWs)   bands (ev):

    -4.4661   1.2557   5.3082   5.3082

          k =-0.4375 0.4375 0.1875 (   187 PWs)   bands (ev):

    -3.9742   0.6720   3.7984   5.2169

          k = 0.4375-0.4375 1.0625 (   184 PWs)   bands (ev):

    -3.1410   0.1894   2.1728   4.6048

          k = 0.3125-0.3125 0.9375 (   186 PWs)   bands (ev):

    -2.2845  -0.5898   1.7967   4.0310

          k =-0.3125 0.5625 0.3125 (   185 PWs)   bands (ev):

    -3.6402   0.0923   4.1661   4.6196

          k = 0.5625-0.3125 1.1875 (   188 PWs)   bands (ev):

    -2.9987  -0.2441   2.7866   4.1140

          k = 0.4375-0.1875 1.0625 (   191 PWs)   bands (ev):

    -2.1619  -0.6414   1.8902   3.3620

          k =-0.3125-1.1875 0.3125 (   184 PWs)   bands (ev):

    -2.6112  -0.5112   2.3571   4.1343

          k =-0.4375 0.4375 0.4375 (   183 PWs)   bands (ev):

    -3.5112  -0.4668   5.0781   5.0781

          k = 0.4375-0.4375 1.3125 (   182 PWs)   bands (ev):

    -3.1504  -0.6337   3.8325   4.7930

     highest occupied level (ev):     6.2101

!    total energy              =     -15.80772537 Ry
     Harris-Foulkes estimate   =     -15.80772539 Ry
     estimated scf accuracy    <       0.00000003 Ry

     The total energy is the sum of the following terms:

     one-electron contribution =       4.83129500 Ry
     hartree contribution      =       1.06613530 Ry
     xc contribution           =      -4.80539709 Ry
     ewald contribution        =     -16.89975858 Ry

     convergence has been achieved in   5 iterations

     Writing output data file /scratch/groups/saraswat/aravind2/qe/silicon.save/
 
     init_run     :      0.09s CPU      0.11s WALL (       1 calls)
     electrons    :      0.61s CPU      0.71s WALL (       1 calls)

     Called by init_run:
     wfcinit      :      0.07s CPU      0.08s WALL (       1 calls)
     potinit      :      0.00s CPU      0.00s WALL (       1 calls)
     hinit0       :      0.01s CPU      0.01s WALL (       1 calls)

     Called by electrons:
     c_bands      :      0.52s CPU      0.59s WALL (       6 calls)
     sum_band     :      0.09s CPU      0.09s WALL (       6 calls)
     v_of_rho     :      0.00s CPU      0.00s WALL (       6 calls)
     mix_rho      :      0.00s CPU      0.00s WALL (       6 calls)

     Called by c_bands:
     init_us_2    :      0.02s CPU      0.03s WALL (     780 calls)
     cegterg      :      0.49s CPU      0.55s WALL (     360 calls)

     Called by sum_band:

     Called by *egterg:
     h_psi        :      0.46s CPU      0.51s WALL (    1069 calls)
     g_psi        :      0.00s CPU      0.00s WALL (     649 calls)
     cdiaghg      :      0.04s CPU      0.05s WALL (     949 calls)

     Called by h_psi:
     h_psi:calbec :      0.01s CPU      0.01s WALL (    1069 calls)
     vloc_psi     :      0.43s CPU      0.48s WALL (    1069 calls)
     add_vuspsi   :      0.01s CPU      0.01s WALL (    1069 calls)

     General routines
     calbec       :      0.01s CPU      0.01s WALL (    1069 calls)
     fft          :      0.00s CPU      0.00s WALL (      18 calls)
     ffts         :      0.00s CPU      0.00s WALL (       6 calls)
     fftw         :      0.44s CPU      0.49s WALL (    9844 calls)
 
     Parallel routines
 
     PWSCF        :      0.78s CPU      2.07s WALL

 
   This run was terminated on:   1:53:28  31May2020            

=------------------------------------------------------------------------------=
   JOB DONE.
=------------------------------------------------------------------------------=
