### Running on host: assam

     Program PWSCF v.6.4.1 starts on 13Aug2019 at 17:27: 5 

     This program is part of the open-source Quantum ESPRESSO suite
     for quantum simulation of materials; please cite
         "P. Giannozzi et al., J. Phys.:Condens. Matter 21 395502 (2009);
         "P. Giannozzi et al., J. Phys.:Condens. Matter 29 465901 (2017);
          URL http://www.quantum-espresso.org", 
     in publications or presentations arising from this work. More details at
     http://www.quantum-espresso.org/quote

     Parallel version (MPI), running on     2 processors

     MPI processes distributed on     1 nodes
     R & G space division:  proc/nbgrp/npool/nimage =       2
     Reading input from scf.Si.alat-9.7.in

     Current dimensions of program PWSCF are:
     Max number of different atomic species (ntypx) = 10
     Max number of k-points (npk) =  40000
     Max angular momentum in pseudopotentials (lmaxx) =  3

     Subspace diagonalization in iterative solution of the eigenvalue problem:
     a serial algorithm will be used


     Parallelization info
     --------------------
     sticks:   dense  smooth     PW     G-vecs:    dense   smooth      PW
     Min         126     126     42                 1365     1365     267
     Max         127     127     43                 1368     1368     270
     Sum         253     253     85                 2733     2733     537



     bravais-lattice index     =            2
     lattice parameter (alat)  =       9.7000  a.u.
     unit-cell volume          =     228.1682 (a.u.)^3
     number of atoms/cell      =            2
     number of atomic types    =            1
     number of electrons       =         8.00
     number of Kohn-Sham states=            4
     kinetic-energy cutoff     =      20.0000  Ry
     charge density cutoff     =      80.0000  Ry
     convergence threshold     =      1.0E-09
     mixing beta               =       0.7000
     number of iterations used =            8  plain     mixing
     Exchange-correlation      =  SLA  PZ   NOGX NOGC ( 1  1  0  0 0 0)

     celldm(1)=   9.700000  celldm(2)=   0.000000  celldm(3)=   0.000000
     celldm(4)=   0.000000  celldm(5)=   0.000000  celldm(6)=   0.000000

     crystal axes: (cart. coord. in units of alat)
               a(1) = (  -0.500000   0.000000   0.500000 )  
               a(2) = (   0.000000   0.500000   0.500000 )  
               a(3) = (  -0.500000   0.500000   0.000000 )  

     reciprocal axes: (cart. coord. in units 2 pi/alat)
               b(1) = ( -1.000000 -1.000000  1.000000 )  
               b(2) = (  1.000000  1.000000  1.000000 )  
               b(3) = ( -1.000000  1.000000 -1.000000 )  


     PseudoPot. # 1 for Si read from file:
     /home/matic/pw/pseudo/Si.pz-vbc.UPF
     MD5 check sum: 6dfa03ddd5817404712e03e4d12deb78
     Pseudo is Norm-conserving, Zval =  4.0
     Generated by new atomic code, or converted to UPF format
     Using radial grid of  431 points,  2 beta functions with: 
                l(1) =   0
                l(2) =   1

     atomic species   valence    mass     pseudopotential
        Si             4.00    28.08600     Si( 1.00)

     48 Sym. Ops., with inversion, found (24 have fractional translation)



   Cartesian axes

     site n.     atom                  positions (alat units)
         1           Si  tau(   1) = (   0.0000000   0.0000000   0.0000000  )
         2           Si  tau(   2) = (  -0.2500000   0.2500000   0.2500000  )

     number of k points=    10
                       cart. coord. in units 2pi/alat
        k(    1) = (  -0.1250000   0.1250000   0.1250000), wk =   0.0625000
        k(    2) = (  -0.3750000   0.3750000  -0.1250000), wk =   0.1875000
        k(    3) = (   0.3750000  -0.3750000   0.6250000), wk =   0.1875000
        k(    4) = (   0.1250000  -0.1250000   0.3750000), wk =   0.1875000
        k(    5) = (  -0.1250000   0.6250000   0.1250000), wk =   0.1875000
        k(    6) = (   0.6250000  -0.1250000   0.8750000), wk =   0.3750000
        k(    7) = (   0.3750000   0.1250000   0.6250000), wk =   0.3750000
        k(    8) = (  -0.1250000  -0.8750000   0.1250000), wk =   0.1875000
        k(    9) = (  -0.3750000   0.3750000   0.3750000), wk =   0.0625000
        k(   10) = (   0.3750000  -0.3750000   1.1250000), wk =   0.1875000

     Dense  grid:     2733 G-vectors     FFT dimensions: (  20,  20,  20)

     Estimated max dynamical RAM per process >       1.17 MB

     Estimated total dynamical RAM >       2.34 MB

     Initial potential from superposition of free atoms

     starting charge    7.99901, renormalised to    8.00000
     Starting wfcs are    8 randomized atomic wfcs

     total cpu time spent up to now is        0.1 secs

     Self-consistent Calculation

     iteration #  1     ecut=    20.00 Ry     beta= 0.70
     Davidson diagonalization with overlap
     ethr =  1.00E-02,  avg # of iterations =  2.0

     total cpu time spent up to now is        0.1 secs

     total energy              =     -15.81797172 Ry
     Harris-Foulkes estimate   =     -15.84888498 Ry
     estimated scf accuracy    <       0.08026357 Ry

     iteration #  2     ecut=    20.00 Ry     beta= 0.70
     Davidson diagonalization with overlap
     ethr =  1.00E-03,  avg # of iterations =  1.3

     total cpu time spent up to now is        0.1 secs

     total energy              =     -15.82454851 Ry
     Harris-Foulkes estimate   =     -15.82474039 Ry
     estimated scf accuracy    <       0.00209466 Ry

     iteration #  3     ecut=    20.00 Ry     beta= 0.70
     Davidson diagonalization with overlap
     ethr =  2.62E-05,  avg # of iterations =  2.5

     total cpu time spent up to now is        0.2 secs

     total energy              =     -15.82505555 Ry
     Harris-Foulkes estimate   =     -15.82507704 Ry
     estimated scf accuracy    <       0.00007024 Ry

     iteration #  4     ecut=    20.00 Ry     beta= 0.70
     Davidson diagonalization with overlap
     ethr =  8.78E-07,  avg # of iterations =  2.1

     total cpu time spent up to now is        0.3 secs

     total energy              =     -15.82507004 Ry
     Harris-Foulkes estimate   =     -15.82507105 Ry
     estimated scf accuracy    <       0.00000296 Ry

     iteration #  5     ecut=    20.00 Ry     beta= 0.70
     Davidson diagonalization with overlap
     ethr =  3.69E-08,  avg # of iterations =  2.3

     total cpu time spent up to now is        0.3 secs

     total energy              =     -15.82507063 Ry
     Harris-Foulkes estimate   =     -15.82507067 Ry
     estimated scf accuracy    <       0.00000008 Ry

     iteration #  6     ecut=    20.00 Ry     beta= 0.70
     Davidson diagonalization with overlap
     ethr =  9.48E-10,  avg # of iterations =  2.1

     total cpu time spent up to now is        0.4 secs

     End of self-consistent calculation

          k =-0.1250 0.1250 0.1250 (   335 PWs)   bands (ev):

    -4.9987   6.2449   7.6023   7.6023

          k =-0.3750 0.3750-0.1250 (   341 PWs)   bands (ev):

    -3.7833   2.9201   5.2783   7.0770

          k = 0.3750-0.3750 0.6250 (   343 PWs)   bands (ev):

    -2.3502   0.3962   5.4005   6.1373

          k = 0.1250-0.1250 0.3750 (   338 PWs)   bands (ev):

    -4.3787   4.5305   6.3810   6.5864

          k =-0.1250 0.6250 0.1250 (   337 PWs)   bands (ev):

    -3.1616   2.7950   4.8150   5.3527

          k = 0.6250-0.1250 0.8750 (   347 PWs)   bands (ev):

    -1.1540   0.5569   3.0963   4.4023

          k = 0.3750 0.1250 0.6250 (   344 PWs)   bands (ev):

    -2.6426   1.6315   4.1032   5.6674

          k =-0.1250-0.8750 0.1250 (   344 PWs)   bands (ev):

    -1.4174   0.7090   3.8459   4.8080

          k =-0.3750 0.3750 0.3750 (   350 PWs)   bands (ev):

    -3.2468   1.3272   6.7104   6.7104

          k = 0.3750-0.3750 1.1250 (   347 PWs)   bands (ev):

    -1.7708   0.7061   3.2704   5.7480

     highest occupied level (ev):     7.6023

!    total energy              =     -15.82507065 Ry
     Harris-Foulkes estimate   =     -15.82507065 Ry
     estimated scf accuracy    <          3.2E-10 Ry

     The total energy is the sum of the following terms:

     one-electron contribution =       5.97565361 Ry
     hartree contribution      =       0.95681162 Ry
     xc contribution           =      -4.98665565 Ry
     ewald contribution        =     -17.77088024 Ry

     convergence has been achieved in   6 iterations

     Writing output data file pwscf.save/

     init_run     :      0.03s CPU      0.04s WALL (       1 calls)
     electrons    :      0.28s CPU      0.30s WALL (       1 calls)

     Called by init_run:
     wfcinit      :      0.01s CPU      0.02s WALL (       1 calls)
     potinit      :      0.00s CPU      0.00s WALL (       1 calls)
     hinit0       :      0.01s CPU      0.01s WALL (       1 calls)

     Called by electrons:
     c_bands      :      0.22s CPU      0.25s WALL (       6 calls)
     sum_band     :      0.05s CPU      0.05s WALL (       6 calls)
     v_of_rho     :      0.01s CPU      0.01s WALL (       7 calls)
     mix_rho      :      0.00s CPU      0.00s WALL (       6 calls)

     Called by c_bands:
     init_us_2    :      0.01s CPU      0.01s WALL (     130 calls)
     cegterg      :      0.22s CPU      0.24s WALL (      60 calls)

     Called by sum_band:

     Called by *egterg:
     h_psi        :      0.20s CPU      0.22s WALL (     193 calls)
     g_psi        :      0.00s CPU      0.00s WALL (     123 calls)
     cdiaghg      :      0.01s CPU      0.01s WALL (     183 calls)

     Called by h_psi:
     h_psi:pot    :      0.20s CPU      0.22s WALL (     193 calls)
     h_psi:calbec :      0.01s CPU      0.01s WALL (     193 calls)
     vloc_psi     :      0.19s CPU      0.21s WALL (     193 calls)
     add_vuspsi   :      0.00s CPU      0.00s WALL (     193 calls)

     General routines
     calbec       :      0.01s CPU      0.01s WALL (     193 calls)
     fft          :      0.00s CPU      0.00s WALL (      20 calls)
     ffts         :      0.00s CPU      0.00s WALL (       6 calls)
     fftw         :      0.21s CPU      0.23s WALL (    1742 calls)

     Parallel routines
     fft_scatt_xy :      0.02s CPU      0.02s WALL (    1768 calls)
     fft_scatt_yz :      0.04s CPU      0.04s WALL (    1768 calls)

     PWSCF        :      0.33s CPU      0.37s WALL


   This run was terminated on:  17:27: 6  13Aug2019            

=------------------------------------------------------------------------------=
   JOB DONE.
=------------------------------------------------------------------------------=
