### Running on host: assam

     Program PWSCF v.6.4.1 starts on 13Aug2019 at 17:27:10 

     This program is part of the open-source Quantum ESPRESSO suite
     for quantum simulation of materials; please cite
         "P. Giannozzi et al., J. Phys.:Condens. Matter 21 395502 (2009);
         "P. Giannozzi et al., J. Phys.:Condens. Matter 29 465901 (2017);
          URL http://www.quantum-espresso.org", 
     in publications or presentations arising from this work. More details at
     http://www.quantum-espresso.org/quote

     Parallel version (MPI), running on     2 processors

     MPI processes distributed on     1 nodes
     R & G space division:  proc/nbgrp/npool/nimage =       2
     Reading input from scf.Si.alat-10.1.in

     Current dimensions of program PWSCF are:
     Max number of different atomic species (ntypx) = 10
     Max number of k-points (npk) =  40000
     Max angular momentum in pseudopotentials (lmaxx) =  3

     Subspace diagonalization in iterative solution of the eigenvalue problem:
     a serial algorithm will be used


     Parallelization info
     --------------------
     sticks:   dense  smooth     PW     G-vecs:    dense   smooth      PW
     Min         141     141     45                 1559     1559     304
     Max         142     142     46                 1560     1560     305
     Sum         283     283     91                 3119     3119     609



     bravais-lattice index     =            2
     lattice parameter (alat)  =      10.1000  a.u.
     unit-cell volume          =     257.5752 (a.u.)^3
     number of atoms/cell      =            2
     number of atomic types    =            1
     number of electrons       =         8.00
     number of Kohn-Sham states=            4
     kinetic-energy cutoff     =      20.0000  Ry
     charge density cutoff     =      80.0000  Ry
     convergence threshold     =      1.0E-09
     mixing beta               =       0.7000
     number of iterations used =            8  plain     mixing
     Exchange-correlation      =  SLA  PZ   NOGX NOGC ( 1  1  0  0 0 0)

     celldm(1)=  10.100000  celldm(2)=   0.000000  celldm(3)=   0.000000
     celldm(4)=   0.000000  celldm(5)=   0.000000  celldm(6)=   0.000000

     crystal axes: (cart. coord. in units of alat)
               a(1) = (  -0.500000   0.000000   0.500000 )  
               a(2) = (   0.000000   0.500000   0.500000 )  
               a(3) = (  -0.500000   0.500000   0.000000 )  

     reciprocal axes: (cart. coord. in units 2 pi/alat)
               b(1) = ( -1.000000 -1.000000  1.000000 )  
               b(2) = (  1.000000  1.000000  1.000000 )  
               b(3) = ( -1.000000  1.000000 -1.000000 )  


     PseudoPot. # 1 for Si read from file:
     /home/matic/pw/pseudo/Si.pz-vbc.UPF
     MD5 check sum: 6dfa03ddd5817404712e03e4d12deb78
     Pseudo is Norm-conserving, Zval =  4.0
     Generated by new atomic code, or converted to UPF format
     Using radial grid of  431 points,  2 beta functions with: 
                l(1) =   0
                l(2) =   1

     atomic species   valence    mass     pseudopotential
        Si             4.00    28.08600     Si( 1.00)

     48 Sym. Ops., with inversion, found (24 have fractional translation)



   Cartesian axes

     site n.     atom                  positions (alat units)
         1           Si  tau(   1) = (   0.0000000   0.0000000   0.0000000  )
         2           Si  tau(   2) = (  -0.2500000   0.2500000   0.2500000  )

     number of k points=    10
                       cart. coord. in units 2pi/alat
        k(    1) = (  -0.1250000   0.1250000   0.1250000), wk =   0.0625000
        k(    2) = (  -0.3750000   0.3750000  -0.1250000), wk =   0.1875000
        k(    3) = (   0.3750000  -0.3750000   0.6250000), wk =   0.1875000
        k(    4) = (   0.1250000  -0.1250000   0.3750000), wk =   0.1875000
        k(    5) = (  -0.1250000   0.6250000   0.1250000), wk =   0.1875000
        k(    6) = (   0.6250000  -0.1250000   0.8750000), wk =   0.3750000
        k(    7) = (   0.3750000   0.1250000   0.6250000), wk =   0.3750000
        k(    8) = (  -0.1250000  -0.8750000   0.1250000), wk =   0.1875000
        k(    9) = (  -0.3750000   0.3750000   0.3750000), wk =   0.0625000
        k(   10) = (   0.3750000  -0.3750000   1.1250000), wk =   0.1875000

     Dense  grid:     3119 G-vectors     FFT dimensions: (  24,  24,  24)

     Estimated max dynamical RAM per process >       1.48 MB

     Estimated total dynamical RAM >       2.97 MB

     Initial potential from superposition of free atoms

     starting charge    7.99901, renormalised to    8.00000
     Starting wfcs are    8 randomized atomic wfcs

     total cpu time spent up to now is        0.1 secs

     Self-consistent Calculation

     iteration #  1     ecut=    20.00 Ry     beta= 0.70
     Davidson diagonalization with overlap
     ethr =  1.00E-02,  avg # of iterations =  2.0

     Threshold (ethr) on eigenvalues was too large:
     Diagonalizing with lowered threshold

     Davidson diagonalization with overlap
     ethr =  8.21E-04,  avg # of iterations =  1.0

     total cpu time spent up to now is        0.2 secs

     total energy              =     -15.84269346 Ry
     Harris-Foulkes estimate   =     -15.86535456 Ry
     estimated scf accuracy    <       0.06481102 Ry

     iteration #  2     ecut=    20.00 Ry     beta= 0.70
     Davidson diagonalization with overlap
     ethr =  8.10E-04,  avg # of iterations =  1.0

     total cpu time spent up to now is        0.2 secs

     total energy              =     -15.84611042 Ry
     Harris-Foulkes estimate   =     -15.84640597 Ry
     estimated scf accuracy    <       0.00216306 Ry

     iteration #  3     ecut=    20.00 Ry     beta= 0.70
     Davidson diagonalization with overlap
     ethr =  2.70E-05,  avg # of iterations =  2.5

     total cpu time spent up to now is        0.3 secs

     total energy              =     -15.84659930 Ry
     Harris-Foulkes estimate   =     -15.84663418 Ry
     estimated scf accuracy    <       0.00007715 Ry

     iteration #  4     ecut=    20.00 Ry     beta= 0.70
     Davidson diagonalization with overlap
     ethr =  9.64E-07,  avg # of iterations =  2.2

     total cpu time spent up to now is        0.3 secs

     total energy              =     -15.84661705 Ry
     Harris-Foulkes estimate   =     -15.84662065 Ry
     estimated scf accuracy    <       0.00000785 Ry

     iteration #  5     ecut=    20.00 Ry     beta= 0.70
     Davidson diagonalization with overlap
     ethr =  9.82E-08,  avg # of iterations =  2.0

     total cpu time spent up to now is        0.4 secs

     total energy              =     -15.84661824 Ry
     Harris-Foulkes estimate   =     -15.84661827 Ry
     estimated scf accuracy    <       0.00000007 Ry

     iteration #  6     ecut=    20.00 Ry     beta= 0.70
     Davidson diagonalization with overlap
     ethr =  8.71E-10,  avg # of iterations =  2.7

     total cpu time spent up to now is        0.5 secs

     total energy              =     -15.84661827 Ry
     Harris-Foulkes estimate   =     -15.84661827 Ry
     estimated scf accuracy    <          1.4E-09 Ry

     iteration #  7     ecut=    20.00 Ry     beta= 0.70
     Davidson diagonalization with overlap
     ethr =  1.70E-11,  avg # of iterations =  2.2

     total cpu time spent up to now is        0.5 secs

     End of self-consistent calculation

          k =-0.1250 0.1250 0.1250 (   381 PWs)   bands (ev):

    -5.4957   4.9433   6.2584   6.2584

          k =-0.3750 0.3750-0.1250 (   389 PWs)   bands (ev):

    -4.4026   1.8390   4.1445   5.7584

          k = 0.3750-0.3750 0.6250 (   389 PWs)   bands (ev):

    -3.1573  -0.4017   4.2020   4.9269

          k = 0.1250-0.1250 0.3750 (   380 PWs)   bands (ev):

    -4.9352   3.3006   5.1726   5.2820

          k =-0.1250 0.6250 0.1250 (   393 PWs)   bands (ev):

    -3.8398   1.5851   3.7532   4.2420

          k = 0.6250-0.1250 0.8750 (   390 PWs)   bands (ev):

    -2.0692  -0.4708   2.2648   3.4307

          k = 0.3750 0.1250 0.6250 (   393 PWs)   bands (ev):

    -3.3865   0.6081   3.0823   4.5305

          k =-0.1250-0.8750 0.1250 (   391 PWs)   bands (ev):

    -2.2717  -0.3549   2.9296   3.7462

          k =-0.3750 0.3750 0.3750 (   392 PWs)   bands (ev):

    -3.9317   0.4344   5.4296   5.4296

          k = 0.3750-0.3750 1.1250 (   394 PWs)   bands (ev):

    -2.6337  -0.2251   2.3621   4.5836

     highest occupied level (ev):     6.2584

!    total energy              =     -15.84661827 Ry
     Harris-Foulkes estimate   =     -15.84661827 Ry
     estimated scf accuracy    <          4.3E-11 Ry

     The total energy is the sum of the following terms:

     one-electron contribution =       5.01559714 Ry
     hartree contribution      =       1.05321577 Ry
     xc contribution           =      -4.84834824 Ry
     ewald contribution        =     -17.06708294 Ry

     convergence has been achieved in   7 iterations

     Writing output data file pwscf.save/

     init_run     :      0.05s CPU      0.05s WALL (       1 calls)
     electrons    :      0.44s CPU      0.44s WALL (       1 calls)

     Called by init_run:
     wfcinit      :      0.03s CPU      0.03s WALL (       1 calls)
     potinit      :      0.00s CPU      0.01s WALL (       1 calls)
     hinit0       :      0.01s CPU      0.01s WALL (       1 calls)

     Called by electrons:
     c_bands      :      0.35s CPU      0.35s WALL (       8 calls)
     sum_band     :      0.08s CPU      0.08s WALL (       8 calls)
     v_of_rho     :      0.01s CPU      0.01s WALL (       8 calls)
     mix_rho      :      0.00s CPU      0.00s WALL (       8 calls)

     Called by c_bands:
     init_us_2    :      0.01s CPU      0.01s WALL (     170 calls)
     cegterg      :      0.34s CPU      0.34s WALL (      80 calls)

     Called by sum_band:

     Called by *egterg:
     h_psi        :      0.33s CPU      0.33s WALL (     246 calls)
     g_psi        :      0.00s CPU      0.00s WALL (     156 calls)
     cdiaghg      :      0.01s CPU      0.01s WALL (     226 calls)

     Called by h_psi:
     h_psi:pot    :      0.32s CPU      0.33s WALL (     246 calls)
     h_psi:calbec :      0.01s CPU      0.01s WALL (     246 calls)
     vloc_psi     :      0.31s CPU      0.32s WALL (     246 calls)
     add_vuspsi   :      0.00s CPU      0.00s WALL (     246 calls)

     General routines
     calbec       :      0.01s CPU      0.01s WALL (     246 calls)
     fft          :      0.01s CPU      0.01s WALL (      24 calls)
     ffts         :      0.00s CPU      0.00s WALL (       8 calls)
     fftw         :      0.34s CPU      0.35s WALL (    2192 calls)

     Parallel routines
     fft_scatt_xy :      0.03s CPU      0.03s WALL (    2224 calls)
     fft_scatt_yz :      0.06s CPU      0.06s WALL (    2224 calls)

     PWSCF        :      0.51s CPU      0.52s WALL


   This run was terminated on:  17:27:11  13Aug2019            

=------------------------------------------------------------------------------=
   JOB DONE.
=------------------------------------------------------------------------------=
