### Running on host: assam

     Program PWSCF v.6.4.1 starts on 13Aug2019 at 17:27:17 

     This program is part of the open-source Quantum ESPRESSO suite
     for quantum simulation of materials; please cite
         "P. Giannozzi et al., J. Phys.:Condens. Matter 21 395502 (2009);
         "P. Giannozzi et al., J. Phys.:Condens. Matter 29 465901 (2017);
          URL http://www.quantum-espresso.org", 
     in publications or presentations arising from this work. More details at
     http://www.quantum-espresso.org/quote

     Parallel version (MPI), running on     2 processors

     MPI processes distributed on     1 nodes
     R & G space division:  proc/nbgrp/npool/nimage =       2
     Reading input from scf.Si.alat-10.6.in

     Current dimensions of program PWSCF are:
     Max number of different atomic species (ntypx) = 10
     Max number of k-points (npk) =  40000
     Max angular momentum in pseudopotentials (lmaxx) =  3

     Subspace diagonalization in iterative solution of the eigenvalue problem:
     a serial algorithm will be used


     Parallelization info
     --------------------
     sticks:   dense  smooth     PW     G-vecs:    dense   smooth      PW
     Min         156     156     54                 1823     1823     362
     Max         157     157     55                 1824     1824     363
     Sum         313     313    109                 3647     3647     725



     bravais-lattice index     =            2
     lattice parameter (alat)  =      10.6000  a.u.
     unit-cell volume          =     297.7540 (a.u.)^3
     number of atoms/cell      =            2
     number of atomic types    =            1
     number of electrons       =         8.00
     number of Kohn-Sham states=            4
     kinetic-energy cutoff     =      20.0000  Ry
     charge density cutoff     =      80.0000  Ry
     convergence threshold     =      1.0E-09
     mixing beta               =       0.7000
     number of iterations used =            8  plain     mixing
     Exchange-correlation      =  SLA  PZ   NOGX NOGC ( 1  1  0  0 0 0)

     celldm(1)=  10.600000  celldm(2)=   0.000000  celldm(3)=   0.000000
     celldm(4)=   0.000000  celldm(5)=   0.000000  celldm(6)=   0.000000

     crystal axes: (cart. coord. in units of alat)
               a(1) = (  -0.500000   0.000000   0.500000 )  
               a(2) = (   0.000000   0.500000   0.500000 )  
               a(3) = (  -0.500000   0.500000   0.000000 )  

     reciprocal axes: (cart. coord. in units 2 pi/alat)
               b(1) = ( -1.000000 -1.000000  1.000000 )  
               b(2) = (  1.000000  1.000000  1.000000 )  
               b(3) = ( -1.000000  1.000000 -1.000000 )  


     PseudoPot. # 1 for Si read from file:
     /home/matic/pw/pseudo/Si.pz-vbc.UPF
     MD5 check sum: 6dfa03ddd5817404712e03e4d12deb78
     Pseudo is Norm-conserving, Zval =  4.0
     Generated by new atomic code, or converted to UPF format
     Using radial grid of  431 points,  2 beta functions with: 
                l(1) =   0
                l(2) =   1

     atomic species   valence    mass     pseudopotential
        Si             4.00    28.08600     Si( 1.00)

     48 Sym. Ops., with inversion, found (24 have fractional translation)



   Cartesian axes

     site n.     atom                  positions (alat units)
         1           Si  tau(   1) = (   0.0000000   0.0000000   0.0000000  )
         2           Si  tau(   2) = (  -0.2500000   0.2500000   0.2500000  )

     number of k points=    10
                       cart. coord. in units 2pi/alat
        k(    1) = (  -0.1250000   0.1250000   0.1250000), wk =   0.0625000
        k(    2) = (  -0.3750000   0.3750000  -0.1250000), wk =   0.1875000
        k(    3) = (   0.3750000  -0.3750000   0.6250000), wk =   0.1875000
        k(    4) = (   0.1250000  -0.1250000   0.3750000), wk =   0.1875000
        k(    5) = (  -0.1250000   0.6250000   0.1250000), wk =   0.1875000
        k(    6) = (   0.6250000  -0.1250000   0.8750000), wk =   0.3750000
        k(    7) = (   0.3750000   0.1250000   0.6250000), wk =   0.3750000
        k(    8) = (  -0.1250000  -0.8750000   0.1250000), wk =   0.1875000
        k(    9) = (  -0.3750000   0.3750000   0.3750000), wk =   0.0625000
        k(   10) = (   0.3750000  -0.3750000   1.1250000), wk =   0.1875000

     Dense  grid:     3647 G-vectors     FFT dimensions: (  24,  24,  24)

     Estimated max dynamical RAM per process >       1.64 MB

     Estimated total dynamical RAM >       3.27 MB

     Initial potential from superposition of free atoms

     starting charge    7.99901, renormalised to    8.00000
     Starting wfcs are    8 randomized atomic wfcs

     total cpu time spent up to now is        0.1 secs

     Self-consistent Calculation

     iteration #  1     ecut=    20.00 Ry     beta= 0.70
     Davidson diagonalization with overlap
     ethr =  1.00E-02,  avg # of iterations =  2.0

     Threshold (ethr) on eigenvalues was too large:
     Diagonalizing with lowered threshold

     Davidson diagonalization with overlap
     ethr =  6.36E-04,  avg # of iterations =  1.0

     total cpu time spent up to now is        0.2 secs

     total energy              =     -15.83561550 Ry
     Harris-Foulkes estimate   =     -15.85096165 Ry
     estimated scf accuracy    <       0.05020732 Ry

     iteration #  2     ecut=    20.00 Ry     beta= 0.70
     Davidson diagonalization with overlap
     ethr =  6.28E-04,  avg # of iterations =  1.0

     total cpu time spent up to now is        0.2 secs

     total energy              =     -15.83757855 Ry
     Harris-Foulkes estimate   =     -15.83790525 Ry
     estimated scf accuracy    <       0.00209220 Ry

     iteration #  3     ecut=    20.00 Ry     beta= 0.70
     Davidson diagonalization with overlap
     ethr =  2.62E-05,  avg # of iterations =  2.4

     total cpu time spent up to now is        0.3 secs

     total energy              =     -15.83787543 Ry
     Harris-Foulkes estimate   =     -15.83789898 Ry
     estimated scf accuracy    <       0.00005223 Ry

     iteration #  4     ecut=    20.00 Ry     beta= 0.70
     Davidson diagonalization with overlap
     ethr =  6.53E-07,  avg # of iterations =  2.5

     total cpu time spent up to now is        0.3 secs

     total energy              =     -15.83789205 Ry
     Harris-Foulkes estimate   =     -15.83789377 Ry
     estimated scf accuracy    <       0.00000361 Ry

     iteration #  5     ecut=    20.00 Ry     beta= 0.70
     Davidson diagonalization with overlap
     ethr =  4.52E-08,  avg # of iterations =  2.2

     total cpu time spent up to now is        0.4 secs

     total energy              =     -15.83789277 Ry
     Harris-Foulkes estimate   =     -15.83789282 Ry
     estimated scf accuracy    <       0.00000009 Ry

     iteration #  6     ecut=    20.00 Ry     beta= 0.70
     Davidson diagonalization with overlap
     ethr =  1.15E-09,  avg # of iterations =  2.4

     total cpu time spent up to now is        0.5 secs

     total energy              =     -15.83789280 Ry
     Harris-Foulkes estimate   =     -15.83789280 Ry
     estimated scf accuracy    <          1.6E-09 Ry

     iteration #  7     ecut=    20.00 Ry     beta= 0.70
     Davidson diagonalization with overlap
     ethr =  2.05E-11,  avg # of iterations =  3.0

     total cpu time spent up to now is        0.5 secs

     End of self-consistent calculation

          k =-0.1250 0.1250 0.1250 (   456 PWs)   bands (ev):

    -6.0227   3.5009   4.8282   4.8282

          k =-0.3750 0.3750-0.1250 (   453 PWs)   bands (ev):

    -5.0643   0.6387   2.9512   4.3654

          k = 0.3750-0.3750 0.6250 (   447 PWs)   bands (ev):

    -4.0147  -1.2898   2.9406   3.6491

          k = 0.1250-0.1250 0.3750 (   456 PWs)   bands (ev):

    -5.5291   1.9249   3.8911   3.9122

          k =-0.1250 0.6250 0.1250 (   449 PWs)   bands (ev):

    -4.5657   0.2600   2.6396   3.0688

          k = 0.6250-0.1250 0.8750 (   449 PWs)   bands (ev):

    -3.0465  -1.5870   1.3907   2.3968

          k = 0.3750 0.1250 0.6250 (   445 PWs)   bands (ev):

    -4.1824  -0.5250   2.0246   3.3250

          k =-0.1250-0.8750 0.1250 (   452 PWs)   bands (ev):

    -3.1919  -1.5033   1.9583   2.6273

          k =-0.3750 0.3750 0.3750 (   449 PWs)   bands (ev):

    -4.6647  -0.5458   4.0781   4.0781

          k = 0.3750-0.3750 1.1250 (   449 PWs)   bands (ev):

    -3.5507  -1.2636   1.4234   3.3554

     highest occupied level (ev):     4.8282

!    total energy              =     -15.83789280 Ry
     Harris-Foulkes estimate   =     -15.83789280 Ry
     estimated scf accuracy    <          5.5E-12 Ry

     The total energy is the sum of the following terms:

     one-electron contribution =       3.94283736 Ry
     hartree contribution      =       1.17519162 Ry
     xc contribution           =      -4.69388994 Ry
     ewald contribution        =     -16.26203184 Ry

     convergence has been achieved in   7 iterations

     Writing output data file pwscf.save/

     init_run     :      0.04s CPU      0.06s WALL (       1 calls)
     electrons    :      0.44s CPU      0.46s WALL (       1 calls)

     Called by init_run:
     wfcinit      :      0.03s CPU      0.03s WALL (       1 calls)
     potinit      :      0.00s CPU      0.00s WALL (       1 calls)
     hinit0       :      0.01s CPU      0.01s WALL (       1 calls)

     Called by electrons:
     c_bands      :      0.35s CPU      0.37s WALL (       8 calls)
     sum_band     :      0.07s CPU      0.08s WALL (       8 calls)
     v_of_rho     :      0.01s CPU      0.01s WALL (       8 calls)
     mix_rho      :      0.00s CPU      0.00s WALL (       8 calls)

     Called by c_bands:
     init_us_2    :      0.01s CPU      0.01s WALL (     170 calls)
     cegterg      :      0.34s CPU      0.36s WALL (      80 calls)

     Called by sum_band:

     Called by *egterg:
     h_psi        :      0.32s CPU      0.35s WALL (     255 calls)
     g_psi        :      0.00s CPU      0.00s WALL (     165 calls)
     cdiaghg      :      0.01s CPU      0.01s WALL (     235 calls)

     Called by h_psi:
     h_psi:pot    :      0.32s CPU      0.35s WALL (     255 calls)
     h_psi:calbec :      0.01s CPU      0.01s WALL (     255 calls)
     vloc_psi     :      0.31s CPU      0.33s WALL (     255 calls)
     add_vuspsi   :      0.00s CPU      0.01s WALL (     255 calls)

     General routines
     calbec       :      0.01s CPU      0.01s WALL (     255 calls)
     fft          :      0.01s CPU      0.01s WALL (      24 calls)
     ffts         :      0.00s CPU      0.00s WALL (       8 calls)
     fftw         :      0.34s CPU      0.37s WALL (    2232 calls)

     Parallel routines
     fft_scatt_xy :      0.03s CPU      0.03s WALL (    2264 calls)
     fft_scatt_yz :      0.06s CPU      0.07s WALL (    2264 calls)

     PWSCF        :      0.50s CPU      0.54s WALL


   This run was terminated on:  17:27:17  13Aug2019            

=------------------------------------------------------------------------------=
   JOB DONE.
=------------------------------------------------------------------------------=
