### Running on host: assam

     Program PWSCF v.6.4.1 starts on 13Aug2019 at 17:27:18 

     This program is part of the open-source Quantum ESPRESSO suite
     for quantum simulation of materials; please cite
         "P. Giannozzi et al., J. Phys.:Condens. Matter 21 395502 (2009);
         "P. Giannozzi et al., J. Phys.:Condens. Matter 29 465901 (2017);
          URL http://www.quantum-espresso.org", 
     in publications or presentations arising from this work. More details at
     http://www.quantum-espresso.org/quote

     Parallel version (MPI), running on     2 processors

     MPI processes distributed on     1 nodes
     R & G space division:  proc/nbgrp/npool/nimage =       2
     Reading input from scf.Si.alat-10.7.in

     Current dimensions of program PWSCF are:
     Max number of different atomic species (ntypx) = 10
     Max number of k-points (npk) =  40000
     Max angular momentum in pseudopotentials (lmaxx) =  3

     Subspace diagonalization in iterative solution of the eigenvalue problem:
     a serial algorithm will be used


     Parallelization info
     --------------------
     sticks:   dense  smooth     PW     G-vecs:    dense   smooth      PW
     Min         156     156     54                 1859     1859     362
     Max         157     157     55                 1860     1860     363
     Sum         313     313    109                 3719     3719     725



     bravais-lattice index     =            2
     lattice parameter (alat)  =      10.7000  a.u.
     unit-cell volume          =     306.2607 (a.u.)^3
     number of atoms/cell      =            2
     number of atomic types    =            1
     number of electrons       =         8.00
     number of Kohn-Sham states=            4
     kinetic-energy cutoff     =      20.0000  Ry
     charge density cutoff     =      80.0000  Ry
     convergence threshold     =      1.0E-09
     mixing beta               =       0.7000
     number of iterations used =            8  plain     mixing
     Exchange-correlation      =  SLA  PZ   NOGX NOGC ( 1  1  0  0 0 0)

     celldm(1)=  10.700000  celldm(2)=   0.000000  celldm(3)=   0.000000
     celldm(4)=   0.000000  celldm(5)=   0.000000  celldm(6)=   0.000000

     crystal axes: (cart. coord. in units of alat)
               a(1) = (  -0.500000   0.000000   0.500000 )  
               a(2) = (   0.000000   0.500000   0.500000 )  
               a(3) = (  -0.500000   0.500000   0.000000 )  

     reciprocal axes: (cart. coord. in units 2 pi/alat)
               b(1) = ( -1.000000 -1.000000  1.000000 )  
               b(2) = (  1.000000  1.000000  1.000000 )  
               b(3) = ( -1.000000  1.000000 -1.000000 )  


     PseudoPot. # 1 for Si read from file:
     /home/matic/pw/pseudo/Si.pz-vbc.UPF
     MD5 check sum: 6dfa03ddd5817404712e03e4d12deb78
     Pseudo is Norm-conserving, Zval =  4.0
     Generated by new atomic code, or converted to UPF format
     Using radial grid of  431 points,  2 beta functions with: 
                l(1) =   0
                l(2) =   1

     atomic species   valence    mass     pseudopotential
        Si             4.00    28.08600     Si( 1.00)

     48 Sym. Ops., with inversion, found (24 have fractional translation)



   Cartesian axes

     site n.     atom                  positions (alat units)
         1           Si  tau(   1) = (   0.0000000   0.0000000   0.0000000  )
         2           Si  tau(   2) = (  -0.2500000   0.2500000   0.2500000  )

     number of k points=    10
                       cart. coord. in units 2pi/alat
        k(    1) = (  -0.1250000   0.1250000   0.1250000), wk =   0.0625000
        k(    2) = (  -0.3750000   0.3750000  -0.1250000), wk =   0.1875000
        k(    3) = (   0.3750000  -0.3750000   0.6250000), wk =   0.1875000
        k(    4) = (   0.1250000  -0.1250000   0.3750000), wk =   0.1875000
        k(    5) = (  -0.1250000   0.6250000   0.1250000), wk =   0.1875000
        k(    6) = (   0.6250000  -0.1250000   0.8750000), wk =   0.3750000
        k(    7) = (   0.3750000   0.1250000   0.6250000), wk =   0.3750000
        k(    8) = (  -0.1250000  -0.8750000   0.1250000), wk =   0.1875000
        k(    9) = (  -0.3750000   0.3750000   0.3750000), wk =   0.0625000
        k(   10) = (   0.3750000  -0.3750000   1.1250000), wk =   0.1875000

     Dense  grid:     3719 G-vectors     FFT dimensions: (  24,  24,  24)

     Estimated max dynamical RAM per process >       1.66 MB

     Estimated total dynamical RAM >       3.32 MB

     Initial potential from superposition of free atoms

     starting charge    7.99901, renormalised to    8.00000
     Starting wfcs are    8 randomized atomic wfcs

     total cpu time spent up to now is        0.1 secs

     Self-consistent Calculation

     iteration #  1     ecut=    20.00 Ry     beta= 0.70
     Davidson diagonalization with overlap
     ethr =  1.00E-02,  avg # of iterations =  2.0

     Threshold (ethr) on eigenvalues was too large:
     Diagonalizing with lowered threshold

     Davidson diagonalization with overlap
     ethr =  6.00E-04,  avg # of iterations =  1.1

     total cpu time spent up to now is        0.2 secs

     total energy              =     -15.83073591 Ry
     Harris-Foulkes estimate   =     -15.84486561 Ry
     estimated scf accuracy    <       0.04767946 Ry

     iteration #  2     ecut=    20.00 Ry     beta= 0.70
     Davidson diagonalization with overlap
     ethr =  5.96E-04,  avg # of iterations =  1.0

     total cpu time spent up to now is        0.2 secs

     total energy              =     -15.83244797 Ry
     Harris-Foulkes estimate   =     -15.83278018 Ry
     estimated scf accuracy    <       0.00207514 Ry

     iteration #  3     ecut=    20.00 Ry     beta= 0.70
     Davidson diagonalization with overlap
     ethr =  2.59E-05,  avg # of iterations =  2.3

     total cpu time spent up to now is        0.3 secs

     total energy              =     -15.83271422 Ry
     Harris-Foulkes estimate   =     -15.83273583 Ry
     estimated scf accuracy    <       0.00004744 Ry

     iteration #  4     ecut=    20.00 Ry     beta= 0.70
     Davidson diagonalization with overlap
     ethr =  5.93E-07,  avg # of iterations =  2.6

     total cpu time spent up to now is        0.3 secs

     total energy              =     -15.83273062 Ry
     Harris-Foulkes estimate   =     -15.83273208 Ry
     estimated scf accuracy    <       0.00000308 Ry

     iteration #  5     ecut=    20.00 Ry     beta= 0.70
     Davidson diagonalization with overlap
     ethr =  3.85E-08,  avg # of iterations =  2.2

     total cpu time spent up to now is        0.4 secs

     total energy              =     -15.83273129 Ry
     Harris-Foulkes estimate   =     -15.83273134 Ry
     estimated scf accuracy    <       0.00000010 Ry

     iteration #  6     ecut=    20.00 Ry     beta= 0.70
     Davidson diagonalization with overlap
     ethr =  1.28E-09,  avg # of iterations =  2.2

     total cpu time spent up to now is        0.5 secs

     total energy              =     -15.83273131 Ry
     Harris-Foulkes estimate   =     -15.83273132 Ry
     estimated scf accuracy    <          2.3E-09 Ry

     iteration #  7     ecut=    20.00 Ry     beta= 0.70
     Davidson diagonalization with overlap
     ethr =  2.84E-11,  avg # of iterations =  3.0

     total cpu time spent up to now is        0.5 secs

     End of self-consistent calculation

          k =-0.1250 0.1250 0.1250 (   471 PWs)   bands (ev):

    -6.1178   3.2310   4.5704   4.5704

          k =-0.3750 0.3750-0.1250 (   463 PWs)   bands (ev):

    -5.1838   0.4156   2.7388   4.1164

          k = 0.3750-0.3750 0.6250 (   462 PWs)   bands (ev):

    -4.1692  -1.4561   2.7160   3.4202

          k = 0.1250-0.1250 0.3750 (   470 PWs)   bands (ev):

    -5.6364   1.6676   3.6608   3.6683

          k =-0.1250 0.6250 0.1250 (   458 PWs)   bands (ev):

    -4.6964   0.0167   2.4416   2.8589

          k = 0.6250-0.1250 0.8750 (   463 PWs)   bands (ev):

    -3.2230  -1.7905   1.2343   2.2112

          k = 0.3750 0.1250 0.6250 (   461 PWs)   bands (ev):

    -4.3267  -0.7361   1.8375   3.1084

          k =-0.1250-0.8750 0.1250 (   460 PWs)   bands (ev):

    -3.3586  -1.7116   1.7842   2.4276

          k =-0.3750 0.3750 0.3750 (   468 PWs)   bands (ev):

    -4.7979  -0.7292   3.8365   3.8365

          k = 0.3750-0.3750 1.1250 (   456 PWs)   bands (ev):

    -3.7155  -1.4566   1.2576   3.1362

     highest occupied level (ev):     4.5704

!    total energy              =     -15.83273132 Ry
     Harris-Foulkes estimate   =     -15.83273132 Ry
     estimated scf accuracy    <          4.5E-13 Ry

     The total energy is the sum of the following terms:

     one-electron contribution =       3.74271793 Ry
     hartree contribution      =       1.19993669 Ry
     xc contribution           =      -4.66533570 Ry
     ewald contribution        =     -16.11005023 Ry

     convergence has been achieved in   7 iterations

     Writing output data file pwscf.save/

     init_run     :      0.06s CPU      0.06s WALL (       1 calls)
     electrons    :      0.46s CPU      0.47s WALL (       1 calls)

     Called by init_run:
     wfcinit      :      0.03s CPU      0.03s WALL (       1 calls)
     potinit      :      0.00s CPU      0.00s WALL (       1 calls)
     hinit0       :      0.01s CPU      0.01s WALL (       1 calls)

     Called by electrons:
     c_bands      :      0.36s CPU      0.37s WALL (       8 calls)
     sum_band     :      0.08s CPU      0.08s WALL (       8 calls)
     v_of_rho     :      0.01s CPU      0.01s WALL (       8 calls)
     mix_rho      :      0.00s CPU      0.00s WALL (       8 calls)

     Called by c_bands:
     init_us_2    :      0.01s CPU      0.01s WALL (     170 calls)
     cegterg      :      0.35s CPU      0.36s WALL (      80 calls)

     Called by sum_band:

     Called by *egterg:
     h_psi        :      0.34s CPU      0.35s WALL (     254 calls)
     g_psi        :      0.00s CPU      0.00s WALL (     164 calls)
     cdiaghg      :      0.01s CPU      0.01s WALL (     234 calls)

     Called by h_psi:
     h_psi:pot    :      0.34s CPU      0.35s WALL (     254 calls)
     h_psi:calbec :      0.01s CPU      0.01s WALL (     254 calls)
     vloc_psi     :      0.32s CPU      0.33s WALL (     254 calls)
     add_vuspsi   :      0.01s CPU      0.01s WALL (     254 calls)

     General routines
     calbec       :      0.01s CPU      0.01s WALL (     254 calls)
     fft          :      0.01s CPU      0.01s WALL (      24 calls)
     ffts         :      0.00s CPU      0.00s WALL (       8 calls)
     fftw         :      0.36s CPU      0.37s WALL (    2230 calls)

     Parallel routines
     fft_scatt_xy :      0.03s CPU      0.03s WALL (    2262 calls)
     fft_scatt_yz :      0.07s CPU      0.07s WALL (    2262 calls)

     PWSCF        :      0.53s CPU      0.55s WALL


   This run was terminated on:  17:27:18  13Aug2019            

=------------------------------------------------------------------------------=
   JOB DONE.
=------------------------------------------------------------------------------=
