### Running on host: assam

     Program PWSCF v.6.4.1 starts on 13Aug2019 at 17:27: 7 

     This program is part of the open-source Quantum ESPRESSO suite
     for quantum simulation of materials; please cite
         "P. Giannozzi et al., J. Phys.:Condens. Matter 21 395502 (2009);
         "P. Giannozzi et al., J. Phys.:Condens. Matter 29 465901 (2017);
          URL http://www.quantum-espresso.org", 
     in publications or presentations arising from this work. More details at
     http://www.quantum-espresso.org/quote

     Parallel version (MPI), running on     2 processors

     MPI processes distributed on     1 nodes
     R & G space division:  proc/nbgrp/npool/nimage =       2
     Reading input from scf.Si.alat-9.8.in

     Current dimensions of program PWSCF are:
     Max number of different atomic species (ntypx) = 10
     Max number of k-points (npk) =  40000
     Max angular momentum in pseudopotentials (lmaxx) =  3

     Subspace diagonalization in iterative solution of the eigenvalue problem:
     a serial algorithm will be used


     Parallelization info
     --------------------
     sticks:   dense  smooth     PW     G-vecs:    dense   smooth      PW
     Min         126     126     45                 1369     1369     280
     Max         127     127     46                 1372     1372     281
     Sum         253     253     91                 2741     2741     561



     bravais-lattice index     =            2
     lattice parameter (alat)  =       9.8000  a.u.
     unit-cell volume          =     235.2980 (a.u.)^3
     number of atoms/cell      =            2
     number of atomic types    =            1
     number of electrons       =         8.00
     number of Kohn-Sham states=            4
     kinetic-energy cutoff     =      20.0000  Ry
     charge density cutoff     =      80.0000  Ry
     convergence threshold     =      1.0E-09
     mixing beta               =       0.7000
     number of iterations used =            8  plain     mixing
     Exchange-correlation      =  SLA  PZ   NOGX NOGC ( 1  1  0  0 0 0)

     celldm(1)=   9.800000  celldm(2)=   0.000000  celldm(3)=   0.000000
     celldm(4)=   0.000000  celldm(5)=   0.000000  celldm(6)=   0.000000

     crystal axes: (cart. coord. in units of alat)
               a(1) = (  -0.500000   0.000000   0.500000 )  
               a(2) = (   0.000000   0.500000   0.500000 )  
               a(3) = (  -0.500000   0.500000   0.000000 )  

     reciprocal axes: (cart. coord. in units 2 pi/alat)
               b(1) = ( -1.000000 -1.000000  1.000000 )  
               b(2) = (  1.000000  1.000000  1.000000 )  
               b(3) = ( -1.000000  1.000000 -1.000000 )  


     PseudoPot. # 1 for Si read from file:
     /home/matic/pw/pseudo/Si.pz-vbc.UPF
     MD5 check sum: 6dfa03ddd5817404712e03e4d12deb78
     Pseudo is Norm-conserving, Zval =  4.0
     Generated by new atomic code, or converted to UPF format
     Using radial grid of  431 points,  2 beta functions with: 
                l(1) =   0
                l(2) =   1

     atomic species   valence    mass     pseudopotential
        Si             4.00    28.08600     Si( 1.00)

     48 Sym. Ops., with inversion, found (24 have fractional translation)



   Cartesian axes

     site n.     atom                  positions (alat units)
         1           Si  tau(   1) = (   0.0000000   0.0000000   0.0000000  )
         2           Si  tau(   2) = (  -0.2500000   0.2500000   0.2500000  )

     number of k points=    10
                       cart. coord. in units 2pi/alat
        k(    1) = (  -0.1250000   0.1250000   0.1250000), wk =   0.0625000
        k(    2) = (  -0.3750000   0.3750000  -0.1250000), wk =   0.1875000
        k(    3) = (   0.3750000  -0.3750000   0.6250000), wk =   0.1875000
        k(    4) = (   0.1250000  -0.1250000   0.3750000), wk =   0.1875000
        k(    5) = (  -0.1250000   0.6250000   0.1250000), wk =   0.1875000
        k(    6) = (   0.6250000  -0.1250000   0.8750000), wk =   0.3750000
        k(    7) = (   0.3750000   0.1250000   0.6250000), wk =   0.3750000
        k(    8) = (  -0.1250000  -0.8750000   0.1250000), wk =   0.1875000
        k(    9) = (  -0.3750000   0.3750000   0.3750000), wk =   0.0625000
        k(   10) = (   0.3750000  -0.3750000   1.1250000), wk =   0.1875000

     Dense  grid:     2741 G-vectors     FFT dimensions: (  20,  20,  20)

     Estimated max dynamical RAM per process >       1.18 MB

     Estimated total dynamical RAM >       2.36 MB

     Initial potential from superposition of free atoms

     starting charge    7.99901, renormalised to    8.00000
     Starting wfcs are    8 randomized atomic wfcs

     total cpu time spent up to now is        0.1 secs

     Self-consistent Calculation

     iteration #  1     ecut=    20.00 Ry     beta= 0.70
     Davidson diagonalization with overlap
     ethr =  1.00E-02,  avg # of iterations =  2.0

     Threshold (ethr) on eigenvalues was too large:
     Diagonalizing with lowered threshold

     Davidson diagonalization with overlap
     ethr =  9.55E-04,  avg # of iterations =  1.0

     total cpu time spent up to now is        0.1 secs

     total energy              =     -15.82828802 Ry
     Harris-Foulkes estimate   =     -15.85642209 Ry
     estimated scf accuracy    <       0.07532550 Ry

     iteration #  2     ecut=    20.00 Ry     beta= 0.70
     Davidson diagonalization with overlap
     ethr =  9.42E-04,  avg # of iterations =  1.1

     total cpu time spent up to now is        0.2 secs

     total energy              =     -15.83288631 Ry
     Harris-Foulkes estimate   =     -15.83314484 Ry
     estimated scf accuracy    <       0.00215021 Ry

     iteration #  3     ecut=    20.00 Ry     beta= 0.70
     Davidson diagonalization with overlap
     ethr =  2.69E-05,  avg # of iterations =  2.6

     total cpu time spent up to now is        0.2 secs

     total energy              =     -15.83344302 Ry
     Harris-Foulkes estimate   =     -15.83347677 Ry
     estimated scf accuracy    <       0.00008171 Ry

     iteration #  4     ecut=    20.00 Ry     beta= 0.70
     Davidson diagonalization with overlap
     ethr =  1.02E-06,  avg # of iterations =  2.0

     total cpu time spent up to now is        0.3 secs

     total energy              =     -15.83345829 Ry
     Harris-Foulkes estimate   =     -15.83346153 Ry
     estimated scf accuracy    <       0.00000750 Ry

     iteration #  5     ecut=    20.00 Ry     beta= 0.70
     Davidson diagonalization with overlap
     ethr =  9.37E-08,  avg # of iterations =  2.2

     total cpu time spent up to now is        0.3 secs

     total energy              =     -15.83345939 Ry
     Harris-Foulkes estimate   =     -15.83345941 Ry
     estimated scf accuracy    <       0.00000004 Ry

     iteration #  6     ecut=    20.00 Ry     beta= 0.70
     Davidson diagonalization with overlap
     ethr =  4.82E-10,  avg # of iterations =  2.7

     total cpu time spent up to now is        0.3 secs

     total energy              =     -15.83345941 Ry
     Harris-Foulkes estimate   =     -15.83345941 Ry
     estimated scf accuracy    <          2.2E-09 Ry

     iteration #  7     ecut=    20.00 Ry     beta= 0.70
     Davidson diagonalization with overlap
     ethr =  2.80E-11,  avg # of iterations =  1.7

     total cpu time spent up to now is        0.4 secs

     End of self-consistent calculation

          k =-0.1250 0.1250 0.1250 (   338 PWs)   bands (ev):

    -5.1297   5.9061   7.2487   7.2487

          k =-0.3750 0.3750-0.1250 (   352 PWs)   bands (ev):

    -3.9466   2.6381   4.9784   6.7277

          k = 0.3750-0.3750 0.6250 (   359 PWs)   bands (ev):

    -2.5637   0.1875   5.0824   5.8165

          k = 0.1250-0.1250 0.3750 (   349 PWs)   bands (ev):

    -4.5257   4.2101   6.0624   6.2401

          k =-0.1250 0.6250 0.1250 (   349 PWs)   bands (ev):

    -3.3406   2.4790   4.5340   5.0586

          k = 0.6250-0.1250 0.8750 (   359 PWs)   bands (ev):

    -1.3950   0.2870   2.8757   4.1457

          k = 0.3750 0.1250 0.6250 (   357 PWs)   bands (ev):

    -2.8387   1.3647   3.8318   5.3671

          k =-0.1250-0.8750 0.1250 (   358 PWs)   bands (ev):

    -1.6423   0.4290   3.6037   4.5266

          k =-0.3750 0.3750 0.3750 (   353 PWs)   bands (ev):

    -3.4272   1.0939   6.3718   6.3718

          k = 0.3750-0.3750 1.1250 (   361 PWs)   bands (ev):

    -1.9992   0.4640   3.0284   5.4406

     highest occupied level (ev):     7.2487

!    total energy              =     -15.83345941 Ry
     Harris-Foulkes estimate   =     -15.83345941 Ry
     estimated scf accuracy    <          5.6E-12 Ry

     The total energy is the sum of the following terms:

     one-electron contribution =       5.72601320 Ry
     hartree contribution      =       0.98086320 Ry
     xc contribution           =      -4.95079111 Ry
     ewald contribution        =     -17.58954471 Ry

     convergence has been achieved in   7 iterations

     Writing output data file pwscf.save/

     init_run     :      0.05s CPU      0.05s WALL (       1 calls)
     electrons    :      0.30s CPU      0.32s WALL (       1 calls)

     Called by init_run:
     wfcinit      :      0.03s CPU      0.03s WALL (       1 calls)
     potinit      :      0.00s CPU      0.00s WALL (       1 calls)
     hinit0       :      0.01s CPU      0.01s WALL (       1 calls)

     Called by electrons:
     c_bands      :      0.24s CPU      0.25s WALL (       8 calls)
     sum_band     :      0.05s CPU      0.05s WALL (       8 calls)
     v_of_rho     :      0.01s CPU      0.01s WALL (       8 calls)
     mix_rho      :      0.00s CPU      0.00s WALL (       8 calls)

     Called by c_bands:
     init_us_2    :      0.01s CPU      0.01s WALL (     170 calls)
     cegterg      :      0.23s CPU      0.24s WALL (      80 calls)

     Called by sum_band:

     Called by *egterg:
     h_psi        :      0.22s CPU      0.24s WALL (     243 calls)
     g_psi        :      0.00s CPU      0.00s WALL (     153 calls)
     cdiaghg      :      0.01s CPU      0.01s WALL (     223 calls)

     Called by h_psi:
     h_psi:pot    :      0.22s CPU      0.23s WALL (     243 calls)
     h_psi:calbec :      0.01s CPU      0.01s WALL (     243 calls)
     vloc_psi     :      0.21s CPU      0.22s WALL (     243 calls)
     add_vuspsi   :      0.00s CPU      0.00s WALL (     243 calls)

     General routines
     calbec       :      0.01s CPU      0.01s WALL (     243 calls)
     fft          :      0.00s CPU      0.00s WALL (      24 calls)
     ffts         :      0.00s CPU      0.00s WALL (       8 calls)
     fftw         :      0.23s CPU      0.25s WALL (    2180 calls)

     Parallel routines
     fft_scatt_xy :      0.02s CPU      0.02s WALL (    2212 calls)
     fft_scatt_yz :      0.05s CPU      0.05s WALL (    2212 calls)

     PWSCF        :      0.37s CPU      0.39s WALL


   This run was terminated on:  17:27: 7  13Aug2019            

=------------------------------------------------------------------------------=
   JOB DONE.
=------------------------------------------------------------------------------=
