### Running on host: assam

     Program PWSCF v.6.4.1 starts on 13Aug2019 at 17:27:15 

     This program is part of the open-source Quantum ESPRESSO suite
     for quantum simulation of materials; please cite
         "P. Giannozzi et al., J. Phys.:Condens. Matter 21 395502 (2009);
         "P. Giannozzi et al., J. Phys.:Condens. Matter 29 465901 (2017);
          URL http://www.quantum-espresso.org", 
     in publications or presentations arising from this work. More details at
     http://www.quantum-espresso.org/quote

     Parallel version (MPI), running on     2 processors

     MPI processes distributed on     1 nodes
     R & G space division:  proc/nbgrp/npool/nimage =       2
     Reading input from scf.Si.alat-10.5.in

     Current dimensions of program PWSCF are:
     Max number of different atomic species (ntypx) = 10
     Max number of k-points (npk) =  40000
     Max angular momentum in pseudopotentials (lmaxx) =  3

     Subspace diagonalization in iterative solution of the eigenvalue problem:
     a serial algorithm will be used


     Parallelization info
     --------------------
     sticks:   dense  smooth     PW     G-vecs:    dense   smooth      PW
     Min         150     150     54                 1738     1738     350
     Max         151     151     55                 1741     1741     351
     Sum         301     301    109                 3479     3479     701



     bravais-lattice index     =            2
     lattice parameter (alat)  =      10.5000  a.u.
     unit-cell volume          =     289.4062 (a.u.)^3
     number of atoms/cell      =            2
     number of atomic types    =            1
     number of electrons       =         8.00
     number of Kohn-Sham states=            4
     kinetic-energy cutoff     =      20.0000  Ry
     charge density cutoff     =      80.0000  Ry
     convergence threshold     =      1.0E-09
     mixing beta               =       0.7000
     number of iterations used =            8  plain     mixing
     Exchange-correlation      =  SLA  PZ   NOGX NOGC ( 1  1  0  0 0 0)

     celldm(1)=  10.500000  celldm(2)=   0.000000  celldm(3)=   0.000000
     celldm(4)=   0.000000  celldm(5)=   0.000000  celldm(6)=   0.000000

     crystal axes: (cart. coord. in units of alat)
               a(1) = (  -0.500000   0.000000   0.500000 )  
               a(2) = (   0.000000   0.500000   0.500000 )  
               a(3) = (  -0.500000   0.500000   0.000000 )  

     reciprocal axes: (cart. coord. in units 2 pi/alat)
               b(1) = ( -1.000000 -1.000000  1.000000 )  
               b(2) = (  1.000000  1.000000  1.000000 )  
               b(3) = ( -1.000000  1.000000 -1.000000 )  


     PseudoPot. # 1 for Si read from file:
     /home/matic/pw/pseudo/Si.pz-vbc.UPF
     MD5 check sum: 6dfa03ddd5817404712e03e4d12deb78
     Pseudo is Norm-conserving, Zval =  4.0
     Generated by new atomic code, or converted to UPF format
     Using radial grid of  431 points,  2 beta functions with: 
                l(1) =   0
                l(2) =   1

     atomic species   valence    mass     pseudopotential
        Si             4.00    28.08600     Si( 1.00)

     48 Sym. Ops., with inversion, found (24 have fractional translation)



   Cartesian axes

     site n.     atom                  positions (alat units)
         1           Si  tau(   1) = (   0.0000000   0.0000000   0.0000000  )
         2           Si  tau(   2) = (  -0.2500000   0.2500000   0.2500000  )

     number of k points=    10
                       cart. coord. in units 2pi/alat
        k(    1) = (  -0.1250000   0.1250000   0.1250000), wk =   0.0625000
        k(    2) = (  -0.3750000   0.3750000  -0.1250000), wk =   0.1875000
        k(    3) = (   0.3750000  -0.3750000   0.6250000), wk =   0.1875000
        k(    4) = (   0.1250000  -0.1250000   0.3750000), wk =   0.1875000
        k(    5) = (  -0.1250000   0.6250000   0.1250000), wk =   0.1875000
        k(    6) = (   0.6250000  -0.1250000   0.8750000), wk =   0.3750000
        k(    7) = (   0.3750000   0.1250000   0.6250000), wk =   0.3750000
        k(    8) = (  -0.1250000  -0.8750000   0.1250000), wk =   0.1875000
        k(    9) = (  -0.3750000   0.3750000   0.3750000), wk =   0.0625000
        k(   10) = (   0.3750000  -0.3750000   1.1250000), wk =   0.1875000

     Dense  grid:     3479 G-vectors     FFT dimensions: (  24,  24,  24)

     Estimated max dynamical RAM per process >       1.59 MB

     Estimated total dynamical RAM >       3.19 MB

     Initial potential from superposition of free atoms

     starting charge    7.99901, renormalised to    8.00000
     Starting wfcs are    8 randomized atomic wfcs

     total cpu time spent up to now is        0.1 secs

     Self-consistent Calculation

     iteration #  1     ecut=    20.00 Ry     beta= 0.70
     Davidson diagonalization with overlap
     ethr =  1.00E-02,  avg # of iterations =  2.0

     Threshold (ethr) on eigenvalues was too large:
     Diagonalizing with lowered threshold

     Davidson diagonalization with overlap
     ethr =  6.66E-04,  avg # of iterations =  1.1

     total cpu time spent up to now is        0.2 secs

     total energy              =     -15.83953070 Ry
     Harris-Foulkes estimate   =     -15.85615696 Ry
     estimated scf accuracy    <       0.05284385 Ry

     iteration #  2     ecut=    20.00 Ry     beta= 0.70
     Davidson diagonalization with overlap
     ethr =  6.61E-04,  avg # of iterations =  1.0

     total cpu time spent up to now is        0.2 secs

     total energy              =     -15.84174161 Ry
     Harris-Foulkes estimate   =     -15.84206305 Ry
     estimated scf accuracy    <       0.00210843 Ry

     iteration #  3     ecut=    20.00 Ry     beta= 0.70
     Davidson diagonalization with overlap
     ethr =  2.64E-05,  avg # of iterations =  2.5

     total cpu time spent up to now is        0.3 secs

     total energy              =     -15.84207593 Ry
     Harris-Foulkes estimate   =     -15.84210233 Ry
     estimated scf accuracy    <       0.00005762 Ry

     iteration #  4     ecut=    20.00 Ry     beta= 0.70
     Davidson diagonalization with overlap
     ethr =  7.20E-07,  avg # of iterations =  2.2

     total cpu time spent up to now is        0.3 secs

     total energy              =     -15.84209013 Ry
     Harris-Foulkes estimate   =     -15.84209257 Ry
     estimated scf accuracy    <       0.00000519 Ry

     iteration #  5     ecut=    20.00 Ry     beta= 0.70
     Davidson diagonalization with overlap
     ethr =  6.49E-08,  avg # of iterations =  2.1

     total cpu time spent up to now is        0.4 secs

     total energy              =     -15.84209101 Ry
     Harris-Foulkes estimate   =     -15.84209105 Ry
     estimated scf accuracy    <       0.00000008 Ry

     iteration #  6     ecut=    20.00 Ry     beta= 0.70
     Davidson diagonalization with overlap
     ethr =  9.65E-10,  avg # of iterations =  2.6

     total cpu time spent up to now is        0.5 secs

     End of self-consistent calculation

          k =-0.1250 0.1250 0.1250 (   432 PWs)   bands (ev):

    -5.9237   3.7770   5.0948   5.0948

          k =-0.3750 0.3750-0.1250 (   437 PWs)   bands (ev):

    -4.9405   0.8672   3.1721   4.6247

          k = 0.3750-0.3750 0.6250 (   438 PWs)   bands (ev):

    -3.8554  -1.1199   3.1740   3.8857

          k = 0.1250-0.1250 0.3750 (   440 PWs)   bands (ev):

    -5.4183   2.1879   4.1296   4.1649

          k =-0.1250 0.6250 0.1250 (   439 PWs)   bands (ev):

    -4.4299   0.5096   2.8458   3.2863

          k = 0.6250-0.1250 0.8750 (   436 PWs)   bands (ev):

    -2.8640  -1.3772   1.5528   2.5891

          k = 0.3750 0.1250 0.6250 (   436 PWs)   bands (ev):

    -4.0337  -0.3099   2.2191   3.5488

          k =-0.1250-0.8750 0.1250 (   445 PWs)   bands (ev):

    -3.0202  -1.2882   2.1386   2.8342

          k =-0.3750 0.3750 0.3750 (   431 PWs)   bands (ev):

    -4.5264  -0.3598   4.3294   4.3294

          k = 0.3750-0.3750 1.1250 (   438 PWs)   bands (ev):

    -3.3801  -1.0655   1.5958   3.5833

     highest occupied level (ev):     5.0948

!    total energy              =     -15.84209104 Ry
     Harris-Foulkes estimate   =     -15.84209104 Ry
     estimated scf accuracy    <          7.6E-10 Ry

     The total energy is the sum of the following terms:

     one-electron contribution =       4.14744799 Ry
     hartree contribution      =       1.15058744 Ry
     xc contribution           =      -4.72321813 Ry
     ewald contribution        =     -16.41690834 Ry

     convergence has been achieved in   6 iterations

     Writing output data file pwscf.save/

     init_run     :      0.05s CPU      0.06s WALL (       1 calls)
     electrons    :      0.40s CPU      0.41s WALL (       1 calls)

     Called by init_run:
     wfcinit      :      0.03s CPU      0.04s WALL (       1 calls)
     potinit      :      0.00s CPU      0.00s WALL (       1 calls)
     hinit0       :      0.01s CPU      0.01s WALL (       1 calls)

     Called by electrons:
     c_bands      :      0.32s CPU      0.33s WALL (       7 calls)
     sum_band     :      0.07s CPU      0.07s WALL (       7 calls)
     v_of_rho     :      0.01s CPU      0.01s WALL (       7 calls)
     mix_rho      :      0.00s CPU      0.00s WALL (       7 calls)

     Called by c_bands:
     init_us_2    :      0.01s CPU      0.01s WALL (     150 calls)
     cegterg      :      0.31s CPU      0.32s WALL (      70 calls)

     Called by sum_band:

     Called by *egterg:
     h_psi        :      0.30s CPU      0.31s WALL (     215 calls)
     g_psi        :      0.00s CPU      0.00s WALL (     135 calls)
     cdiaghg      :      0.01s CPU      0.01s WALL (     195 calls)

     Called by h_psi:
     h_psi:pot    :      0.30s CPU      0.31s WALL (     215 calls)
     h_psi:calbec :      0.01s CPU      0.01s WALL (     215 calls)
     vloc_psi     :      0.29s CPU      0.30s WALL (     215 calls)
     add_vuspsi   :      0.00s CPU      0.00s WALL (     215 calls)

     General routines
     calbec       :      0.01s CPU      0.01s WALL (     215 calls)
     fft          :      0.01s CPU      0.01s WALL (      21 calls)
     ffts         :      0.00s CPU      0.00s WALL (       7 calls)
     fftw         :      0.32s CPU      0.33s WALL (    1946 calls)

     Parallel routines
     fft_scatt_xy :      0.03s CPU      0.03s WALL (    1974 calls)
     fft_scatt_yz :      0.06s CPU      0.06s WALL (    1974 calls)

     PWSCF        :      0.47s CPU      0.49s WALL


   This run was terminated on:  17:27:16  13Aug2019            

=------------------------------------------------------------------------------=
   JOB DONE.
=------------------------------------------------------------------------------=
