### Running on host: assam

     Program PWSCF v.6.4.1 starts on 13Aug2019 at 17:27: 8 

     This program is part of the open-source Quantum ESPRESSO suite
     for quantum simulation of materials; please cite
         "P. Giannozzi et al., J. Phys.:Condens. Matter 21 395502 (2009);
         "P. Giannozzi et al., J. Phys.:Condens. Matter 29 465901 (2017);
          URL http://www.quantum-espresso.org", 
     in publications or presentations arising from this work. More details at
     http://www.quantum-espresso.org/quote

     Parallel version (MPI), running on     2 processors

     MPI processes distributed on     1 nodes
     R & G space division:  proc/nbgrp/npool/nimage =       2
     Reading input from scf.Si.alat-9.9.in

     Current dimensions of program PWSCF are:
     Max number of different atomic species (ntypx) = 10
     Max number of k-points (npk) =  40000
     Max angular momentum in pseudopotentials (lmaxx) =  3

     Subspace diagonalization in iterative solution of the eigenvalue problem:
     a serial algorithm will be used


     Parallelization info
     --------------------
     sticks:   dense  smooth     PW     G-vecs:    dense   smooth      PW
     Min         132     132     45                 1445     1445     304
     Max         133     133     46                 1446     1446     305
     Sum         265     265     91                 2891     2891     609



     bravais-lattice index     =            2
     lattice parameter (alat)  =       9.9000  a.u.
     unit-cell volume          =     242.5748 (a.u.)^3
     number of atoms/cell      =            2
     number of atomic types    =            1
     number of electrons       =         8.00
     number of Kohn-Sham states=            4
     kinetic-energy cutoff     =      20.0000  Ry
     charge density cutoff     =      80.0000  Ry
     convergence threshold     =      1.0E-09
     mixing beta               =       0.7000
     number of iterations used =            8  plain     mixing
     Exchange-correlation      =  SLA  PZ   NOGX NOGC ( 1  1  0  0 0 0)

     celldm(1)=   9.900000  celldm(2)=   0.000000  celldm(3)=   0.000000
     celldm(4)=   0.000000  celldm(5)=   0.000000  celldm(6)=   0.000000

     crystal axes: (cart. coord. in units of alat)
               a(1) = (  -0.500000   0.000000   0.500000 )  
               a(2) = (   0.000000   0.500000   0.500000 )  
               a(3) = (  -0.500000   0.500000   0.000000 )  

     reciprocal axes: (cart. coord. in units 2 pi/alat)
               b(1) = ( -1.000000 -1.000000  1.000000 )  
               b(2) = (  1.000000  1.000000  1.000000 )  
               b(3) = ( -1.000000  1.000000 -1.000000 )  


     PseudoPot. # 1 for Si read from file:
     /home/matic/pw/pseudo/Si.pz-vbc.UPF
     MD5 check sum: 6dfa03ddd5817404712e03e4d12deb78
     Pseudo is Norm-conserving, Zval =  4.0
     Generated by new atomic code, or converted to UPF format
     Using radial grid of  431 points,  2 beta functions with: 
                l(1) =   0
                l(2) =   1

     atomic species   valence    mass     pseudopotential
        Si             4.00    28.08600     Si( 1.00)

     48 Sym. Ops., with inversion, found (24 have fractional translation)



   Cartesian axes

     site n.     atom                  positions (alat units)
         1           Si  tau(   1) = (   0.0000000   0.0000000   0.0000000  )
         2           Si  tau(   2) = (  -0.2500000   0.2500000   0.2500000  )

     number of k points=    10
                       cart. coord. in units 2pi/alat
        k(    1) = (  -0.1250000   0.1250000   0.1250000), wk =   0.0625000
        k(    2) = (  -0.3750000   0.3750000  -0.1250000), wk =   0.1875000
        k(    3) = (   0.3750000  -0.3750000   0.6250000), wk =   0.1875000
        k(    4) = (   0.1250000  -0.1250000   0.3750000), wk =   0.1875000
        k(    5) = (  -0.1250000   0.6250000   0.1250000), wk =   0.1875000
        k(    6) = (   0.6250000  -0.1250000   0.8750000), wk =   0.3750000
        k(    7) = (   0.3750000   0.1250000   0.6250000), wk =   0.3750000
        k(    8) = (  -0.1250000  -0.8750000   0.1250000), wk =   0.1875000
        k(    9) = (  -0.3750000   0.3750000   0.3750000), wk =   0.0625000
        k(   10) = (   0.3750000  -0.3750000   1.1250000), wk =   0.1875000

     Dense  grid:     2891 G-vectors     FFT dimensions: (  20,  20,  20)

     Estimated max dynamical RAM per process >       1.22 MB

     Estimated total dynamical RAM >       2.44 MB

     Initial potential from superposition of free atoms

     starting charge    7.99901, renormalised to    8.00000
     Starting wfcs are    8 randomized atomic wfcs

     total cpu time spent up to now is        0.1 secs

     Self-consistent Calculation

     iteration #  1     ecut=    20.00 Ry     beta= 0.70
     Davidson diagonalization with overlap
     ethr =  1.00E-02,  avg # of iterations =  2.0

     Threshold (ethr) on eigenvalues was too large:
     Diagonalizing with lowered threshold

     Davidson diagonalization with overlap
     ethr =  9.09E-04,  avg # of iterations =  1.0

     total cpu time spent up to now is        0.1 secs

     total energy              =     -15.83498522 Ry
     Harris-Foulkes estimate   =     -15.86119883 Ry
     estimated scf accuracy    <       0.07165760 Ry

     iteration #  2     ecut=    20.00 Ry     beta= 0.70
     Davidson diagonalization with overlap
     ethr =  8.96E-04,  avg # of iterations =  1.0

     total cpu time spent up to now is        0.2 secs

     total energy              =     -15.83911240 Ry
     Harris-Foulkes estimate   =     -15.83939228 Ry
     estimated scf accuracy    <       0.00218339 Ry

     iteration #  3     ecut=    20.00 Ry     beta= 0.70
     Davidson diagonalization with overlap
     ethr =  2.73E-05,  avg # of iterations =  2.5

     total cpu time spent up to now is        0.2 secs

     total energy              =     -15.83969411 Ry
     Harris-Foulkes estimate   =     -15.83973479 Ry
     estimated scf accuracy    <       0.00008970 Ry

     iteration #  4     ecut=    20.00 Ry     beta= 0.70
     Davidson diagonalization with overlap
     ethr =  1.12E-06,  avg # of iterations =  2.1

     total cpu time spent up to now is        0.3 secs

     total energy              =     -15.83971195 Ry
     Harris-Foulkes estimate   =     -15.83971665 Ry
     estimated scf accuracy    <       0.00001026 Ry

     iteration #  5     ecut=    20.00 Ry     beta= 0.70
     Davidson diagonalization with overlap
     ethr =  1.28E-07,  avg # of iterations =  2.1

     total cpu time spent up to now is        0.3 secs

     total energy              =     -15.83971335 Ry
     Harris-Foulkes estimate   =     -15.83971338 Ry
     estimated scf accuracy    <       0.00000006 Ry

     iteration #  6     ecut=    20.00 Ry     beta= 0.70
     Davidson diagonalization with overlap
     ethr =  7.09E-10,  avg # of iterations =  2.6

     total cpu time spent up to now is        0.3 secs

     total energy              =     -15.83971338 Ry
     Harris-Foulkes estimate   =     -15.83971338 Ry
     estimated scf accuracy    <          1.4E-09 Ry

     iteration #  7     ecut=    20.00 Ry     beta= 0.70
     Davidson diagonalization with overlap
     ethr =  1.70E-11,  avg # of iterations =  2.0

     total cpu time spent up to now is        0.4 secs

     End of self-consistent calculation

          k =-0.1250 0.1250 0.1250 (   359 PWs)   bands (ev):

    -5.2570   5.5745   6.9061   6.9061

          k =-0.3750 0.3750-0.1250 (   366 PWs)   bands (ev):

    -4.1046   2.3640   4.6894   6.3921

          k = 0.3750-0.3750 0.6250 (   366 PWs)   bands (ev):

    -2.7686  -0.0140   4.7771   5.5092

          k = 0.1250-0.1250 0.3750 (   359 PWs)   bands (ev):

    -4.6674   3.8985   5.7554   5.9076

          k =-0.1250 0.6250 0.1250 (   361 PWs)   bands (ev):

    -3.5127   2.1719   4.2632   4.7763

          k = 0.6250-0.1250 0.8750 (   369 PWs)   bands (ev):

    -1.6278   0.0260   2.6641   3.8985

          k = 0.3750 0.1250 0.6250 (   369 PWs)   bands (ev):

    -3.0278   1.1054   3.5711   5.0780

          k =-0.1250-0.8750 0.1250 (   366 PWs)   bands (ev):

    -1.8589   0.1589   3.3709   4.2565

          k =-0.3750 0.3750 0.3750 (   359 PWs)   bands (ev):

    -3.6008   0.8681   6.0460   6.0460

          k = 0.3750-0.3750 1.1250 (   369 PWs)   bands (ev):

    -2.2181   0.2280   2.7968   5.1439

     highest occupied level (ev):     6.9061

!    total energy              =     -15.83971338 Ry
     Harris-Foulkes estimate   =     -15.83971338 Ry
     estimated scf accuracy    <          5.6E-12 Ry

     The total energy is the sum of the following terms:

     one-electron contribution =       5.48300402 Ry
     hartree contribution      =       1.00494854 Ry
     xc contribution           =      -4.91579342 Ry
     ewald contribution        =     -17.41187252 Ry

     convergence has been achieved in   7 iterations

     Writing output data file pwscf.save/

     init_run     :      0.04s CPU      0.05s WALL (       1 calls)
     electrons    :      0.29s CPU      0.32s WALL (       1 calls)

     Called by init_run:
     wfcinit      :      0.02s CPU      0.03s WALL (       1 calls)
     potinit      :      0.00s CPU      0.00s WALL (       1 calls)
     hinit0       :      0.01s CPU      0.01s WALL (       1 calls)

     Called by electrons:
     c_bands      :      0.23s CPU      0.26s WALL (       8 calls)
     sum_band     :      0.05s CPU      0.05s WALL (       8 calls)
     v_of_rho     :      0.01s CPU      0.01s WALL (       8 calls)
     mix_rho      :      0.00s CPU      0.00s WALL (       8 calls)

     Called by c_bands:
     init_us_2    :      0.01s CPU      0.01s WALL (     170 calls)
     cegterg      :      0.22s CPU      0.25s WALL (      80 calls)

     Called by sum_band:

     Called by *egterg:
     h_psi        :      0.21s CPU      0.23s WALL (     243 calls)
     g_psi        :      0.00s CPU      0.00s WALL (     153 calls)
     cdiaghg      :      0.01s CPU      0.01s WALL (     223 calls)

     Called by h_psi:
     h_psi:pot    :      0.21s CPU      0.23s WALL (     243 calls)
     h_psi:calbec :      0.01s CPU      0.01s WALL (     243 calls)
     vloc_psi     :      0.20s CPU      0.22s WALL (     243 calls)
     add_vuspsi   :      0.00s CPU      0.00s WALL (     243 calls)

     General routines
     calbec       :      0.01s CPU      0.01s WALL (     243 calls)
     fft          :      0.00s CPU      0.00s WALL (      24 calls)
     ffts         :      0.00s CPU      0.00s WALL (       8 calls)
     fftw         :      0.22s CPU      0.24s WALL (    2184 calls)

     Parallel routines
     fft_scatt_xy :      0.02s CPU      0.02s WALL (    2216 calls)
     fft_scatt_yz :      0.05s CPU      0.05s WALL (    2216 calls)

     PWSCF        :      0.35s CPU      0.39s WALL


   This run was terminated on:  17:27: 8  13Aug2019            

=------------------------------------------------------------------------------=
   JOB DONE.
=------------------------------------------------------------------------------=
