### Running on host: assam

     Program PWSCF v.6.4.1 starts on 13Aug2019 at 17:58:21 

     This program is part of the open-source Quantum ESPRESSO suite
     for quantum simulation of materials; please cite
         "P. Giannozzi et al., J. Phys.:Condens. Matter 21 395502 (2009);
         "P. Giannozzi et al., J. Phys.:Condens. Matter 29 465901 (2017);
          URL http://www.quantum-espresso.org", 
     in publications or presentations arising from this work. More details at
     http://www.quantum-espresso.org/quote

     Parallel version (MPI), running on     2 processors

     MPI processes distributed on     1 nodes
     R & G space division:  proc/nbgrp/npool/nimage =       2
     Reading input from bands.Si.in

     Current dimensions of program PWSCF are:
     Max number of different atomic species (ntypx) = 10
     Max number of k-points (npk) =  40000
     Max angular momentum in pseudopotentials (lmaxx) =  3

     Atomic positions and unit cell read from directory:
     /temp/matic/pw/Si/pwscf.save/


     Subspace diagonalization in iterative solution of the eigenvalue problem:
     a serial algorithm will be used


     Parallelization info
     --------------------
     sticks:   dense  smooth     PW     G-vecs:    dense   smooth      PW
     Min         135     135     48                 1487     1487     322
     Max         136     136     49                 1488     1488     323
     Sum         271     271     97                 2975     2975     645



     bravais-lattice index     =            2
     lattice parameter (alat)  =      10.0000  a.u.
     unit-cell volume          =     250.0000 (a.u.)^3
     number of atoms/cell      =            2
     number of atomic types    =            1
     number of electrons       =         8.00
     number of Kohn-Sham states=            8
     kinetic-energy cutoff     =      20.0000  Ry
     charge density cutoff     =      80.0000  Ry
     Exchange-correlation      =  SLA  PZ   NOGX NOGC ( 1  1  0  0 0 0)

     celldm(1)=  10.000000  celldm(2)=   0.000000  celldm(3)=   0.000000
     celldm(4)=   0.000000  celldm(5)=   0.000000  celldm(6)=   0.000000

     crystal axes: (cart. coord. in units of alat)
               a(1) = (  -0.500000   0.000000   0.500000 )  
               a(2) = (   0.000000   0.500000   0.500000 )  
               a(3) = (  -0.500000   0.500000   0.000000 )  

     reciprocal axes: (cart. coord. in units 2 pi/alat)
               b(1) = ( -1.000000 -1.000000  1.000000 )  
               b(2) = (  1.000000  1.000000  1.000000 )  
               b(3) = ( -1.000000  1.000000 -1.000000 )  


     PseudoPot. # 1 for Si read from file:
     /home/matic/pw/pseudo/Si.pz-vbc.UPF
     MD5 check sum: 6dfa03ddd5817404712e03e4d12deb78
     Pseudo is Norm-conserving, Zval =  4.0
     Generated by new atomic code, or converted to UPF format
     Using radial grid of  431 points,  2 beta functions with: 
                l(1) =   0
                l(2) =   1

     atomic species   valence    mass     pseudopotential
        Si             4.00    28.08600     Si( 1.00)

     48 Sym. Ops., with inversion, found (24 have fractional translation)



   Cartesian axes

     site n.     atom                  positions (alat units)
         1           Si  tau(   1) = (   0.0000000   0.0000000   0.0000000  )
         2           Si  tau(   2) = (  -0.2500000   0.2500000   0.2500000  )

     number of k points=    36
                       cart. coord. in units 2pi/alat
        k(    1) = (   0.5000000   0.5000000   0.5000000), wk =   0.0030030
        k(    2) = (   0.4000000   0.4000000   0.4000000), wk =   0.0060060
        k(    3) = (   0.3000000   0.3000000   0.3000000), wk =   0.0090090
        k(    4) = (   0.2000000   0.2000000   0.2000000), wk =   0.0120120
        k(    5) = (   0.1000000   0.1000000   0.1000000), wk =   0.0150150
        k(    6) = (   0.0000000   0.0000000   0.0000000), wk =   0.0180180
        k(    7) = (   0.0000000   0.0000000   0.1000000), wk =   0.0210210
        k(    8) = (   0.0000000   0.0000000   0.2000000), wk =   0.0240240
        k(    9) = (   0.0000000   0.0000000   0.3000000), wk =   0.0270270
        k(   10) = (   0.0000000   0.0000000   0.4000000), wk =   0.0300300
        k(   11) = (   0.0000000   0.0000000   0.5000000), wk =   0.0330330
        k(   12) = (   0.0000000   0.0000000   0.6000000), wk =   0.0360360
        k(   13) = (   0.0000000   0.0000000   0.7000000), wk =   0.0390390
        k(   14) = (   0.0000000   0.0000000   0.8000000), wk =   0.0420420
        k(   15) = (   0.0000000   0.0000000   0.9000000), wk =   0.0450450
        k(   16) = (   0.0000000   0.0000000   1.0000000), wk =   0.0480480
        k(   17) = (   0.0000000   0.1000000   1.0000000), wk =   0.0510511
        k(   18) = (   0.0000000   0.2000000   1.0000000), wk =   0.0540541
        k(   19) = (   0.0000000   0.3000000   1.0000000), wk =   0.0570571
        k(   20) = (   0.0000000   0.4000000   1.0000000), wk =   0.0600601
        k(   21) = (   0.0000000   0.5000000   1.0000000), wk =   0.0630631
        k(   22) = (   0.0000000   0.6000000   1.0000000), wk =   0.0660661
        k(   23) = (   0.0000000   0.7000000   1.0000000), wk =   0.0690691
        k(   24) = (   0.0000000   0.8000000   1.0000000), wk =   0.0720721
        k(   25) = (   0.0000000   0.9000000   1.0000000), wk =   0.0750751
        k(   26) = (   0.0000000   1.0000000   1.0000000), wk =   0.0780781
        k(   27) = (   0.0000000   0.9000000   0.9000000), wk =   0.0810811
        k(   28) = (   0.0000000   0.8000000   0.8000000), wk =   0.0840841
        k(   29) = (   0.0000000   0.7000000   0.7000000), wk =   0.0870871
        k(   30) = (   0.0000000   0.6000000   0.6000000), wk =   0.0900901
        k(   31) = (   0.0000000   0.5000000   0.5000000), wk =   0.0930931
        k(   32) = (   0.0000000   0.4000000   0.4000000), wk =   0.0960961
        k(   33) = (   0.0000000   0.3000000   0.3000000), wk =   0.0990991
        k(   34) = (   0.0000000   0.2000000   0.2000000), wk =   0.1021021
        k(   35) = (   0.0000000   0.1000000   0.1000000), wk =   0.1051051
        k(   36) = (   0.0000000   0.0000000   0.0000000), wk =   0.1081081

     Dense  grid:     2975 G-vectors     FFT dimensions: (  24,  24,  24)

     Estimated max dynamical RAM per process >       1.03 MB

     Estimated total dynamical RAM >       2.06 MB

     The potential is recalculated from file :
     /temp/matic/pw/Si/pwscf.save/charge-density

     Starting wfcs are    8 randomized atomic wfcs

     Band Structure Calculation
     Davidson diagonalization with overlap

     ethr =  1.25E-11,  avg # of iterations = 19.1

     total cpu time spent up to now is        1.7 secs

     End of band structure calculation

          k = 0.5000 0.5000 0.5000 (   368 PWs)   bands (ev):

    -3.0482  -0.4792   5.6169   5.6169   8.6740  10.2104  10.2104  14.5674

          k = 0.4000 0.4000 0.4000 (   368 PWs)   bands (ev):

    -3.5621   0.2966   5.6911   5.6911   8.7532  10.3014  10.3014  14.7117

          k = 0.3000 0.3000 0.3000 (   365 PWs)   bands (ev):

    -4.3801   1.8839   5.9136   5.9136   8.9849  10.4665  10.4665  14.6141

          k = 0.2000 0.2000 0.2000 (   362 PWs)   bands (ev):

    -5.0430   3.7770   6.2667   6.2667   9.3286  10.3340  10.3340  13.5023

          k = 0.1000 0.1000 0.1000 (   363 PWs)   bands (ev):

    -5.4567   5.7249   6.6748   6.6748   9.6083   9.8027   9.8027  11.8454

          k = 0.0000 0.0000 0.0000 (   339 PWs)   bands (ev):

    -5.5949   6.8926   6.8926   6.8926   9.4897   9.4897   9.4897  11.0566

          k = 0.0000 0.0000 0.1000 (   351 PWs)   bands (ev):

    -5.5491   6.6393   6.6961   6.6961   9.3719   9.7398   9.7398  11.2954

          k = 0.0000 0.0000 0.2000 (   371 PWs)   bands (ev):

    -5.4102   6.0121   6.2564   6.2564   9.0694  10.3413  10.3413  11.7582

          k = 0.0000 0.0000 0.3000 (   371 PWs)   bands (ev):

    -5.1778   5.2077   5.7551   5.7551   8.6804  11.1176  11.1176  11.6338

          k = 0.0000 0.0000 0.4000 (   367 PWs)   bands (ev):

    -4.8535   4.3228   5.2736   5.2736   8.2811  10.8346  11.9791  11.9791

          k = 0.0000 0.0000 0.5000 (   375 PWs)   bands (ev):

    -4.4411   3.3989   4.8425   4.8425   7.9179   9.9618  12.8867  12.8867

          k = 0.0000 0.0000 0.6000 (   371 PWs)   bands (ev):

    -3.9414   2.4585   4.4790   4.4790   7.6236   9.1836  13.8279  13.8279

          k = 0.0000 0.0000 0.7000 (   379 PWs)   bands (ev):

    -3.3586   1.5163   4.1905   4.1905   7.4123   8.5304  14.7900  14.7900

          k = 0.0000 0.0000 0.8000 (   383 PWs)   bands (ev):

    -2.6971   0.5893   3.9819   3.9819   7.3013   8.0201  15.7759  15.7759

          k = 0.0000 0.0000 0.9000 (   380 PWs)   bands (ev):

    -1.9620  -0.3080   3.8560   3.8560   7.2975   7.6484  16.7737  16.7737

          k = 0.0000 0.0000 1.0000 (   388 PWs)   bands (ev):

    -1.1636  -1.1636   3.8136   3.8136   7.4090   7.4090  17.5628  17.5628

          k = 0.0000 0.1000 1.0000 (   380 PWs)   bands (ev):

    -1.1449  -1.1449   3.6694   3.6694   7.6685   7.6685  17.0107  17.0107

          k = 0.0000 0.2000 1.0000 (   376 PWs)   bands (ev):

    -1.0958  -1.0958   3.3426   3.3426   8.3381   8.3381  15.7336  15.7336

          k = 0.0000 0.3000 1.0000 (   378 PWs)   bands (ev):

    -1.0316  -1.0316   3.0014   3.0014   9.2577   9.2577  14.3575  14.3575

          k = 0.0000 0.4000 1.0000 (   382 PWs)   bands (ev):

    -0.9762  -0.9762   2.7560   2.7560  10.3115  10.3115  13.0346  13.0346

          k = 0.0000 0.5000 1.0000 (   380 PWs)   bands (ev):

    -0.9537  -0.9537   2.6674   2.6674  11.1233  11.1233  12.1366  12.1366

          k = 0.0000 0.6000 1.0000 (   382 PWs)   bands (ev):

    -0.9762  -0.9762   2.7560   2.7560  10.3115  10.3115  13.0346  13.0346

          k = 0.0000 0.7000 1.0000 (   378 PWs)   bands (ev):

    -1.0316  -1.0316   3.0014   3.0014   9.2577   9.2577  14.3575  14.3575

          k = 0.0000 0.8000 1.0000 (   376 PWs)   bands (ev):

    -1.0958  -1.0958   3.3426   3.3426   8.3381   8.3381  15.7336  15.7336

          k = 0.0000 0.9000 1.0000 (   380 PWs)   bands (ev):

    -1.1449  -1.1449   3.6694   3.6694   7.6685   7.6685  17.0107  17.0107

          k = 0.0000 1.0000 1.0000 (   388 PWs)   bands (ev):

    -1.1636  -1.1636   3.8136   3.8136   7.4090   7.4090  17.5628  17.5628

          k = 0.0000 0.9000 0.9000 (   379 PWs)   bands (ev):

    -1.1951  -1.0634   3.2650   3.8893   7.4980   8.2537  16.7079  17.0936

          k = 0.0000 0.8000 0.8000 (   373 PWs)   bands (ev):

    -1.3664  -0.7683   2.4413   4.1124   7.7574  10.0261  15.3462  15.8780

          k = 0.0000 0.7000 0.7000 (   383 PWs)   bands (ev):

    -1.8370  -0.2782   2.0609   4.4682   8.1756  12.0929  14.0284  14.6198

          k = 0.0000 0.6000 0.6000 (   385 PWs)   bands (ev):

    -2.5800   0.4039   2.2369   4.9345   8.7284  12.8489  13.0319  14.0373

          k = 0.0000 0.5000 0.5000 (   379 PWs)   bands (ev):

    -3.3985   1.2725   2.8064   5.4654   9.3549  11.8352  12.1583  13.3515

          k = 0.0000 0.4000 0.4000 (   371 PWs)   bands (ev):

    -4.1507   2.3179   3.6249   5.9911   9.9166  10.9951  11.3183  12.8978

          k = 0.0000 0.3000 0.3000 (   371 PWs)   bands (ev):

    -4.7695   3.5213   4.5960   6.4250  10.1839  10.3366  10.6238  12.8136

          k = 0.0000 0.2000 0.2000 (   367 PWs)   bands (ev):

    -5.2250   4.8440   5.6162   6.7095   9.8641  10.0754  10.1109  12.6020

          k = 0.0000 0.1000 0.1000 (   361 PWs)   bands (ev):

    -5.5032   6.1585   6.5007   6.8510   9.5822   9.6686   9.8174  11.5746

          k = 0.0000 0.0000 0.0000 (   339 PWs)   bands (ev):

    -5.5949   6.8926   6.8926   6.8926   9.4897   9.4897   9.4897  11.0566

     Writing output data file pwscf.save/

     init_run     :      0.02s CPU      0.02s WALL (       1 calls)
     electrons    :      1.51s CPU      1.58s WALL (       1 calls)

     Called by init_run:
     wfcinit      :      0.00s CPU      0.00s WALL (       1 calls)
     potinit      :      0.00s CPU      0.00s WALL (       1 calls)
     hinit0       :      0.01s CPU      0.01s WALL (       1 calls)

     Called by electrons:
     c_bands      :      1.51s CPU      1.58s WALL (       1 calls)
     v_of_rho     :      0.00s CPU      0.00s WALL (       1 calls)

     Called by c_bands:
     init_us_2    :      0.00s CPU      0.00s WALL (      36 calls)
     cegterg      :      1.41s CPU      1.47s WALL (      48 calls)

     Called by sum_band:

     Called by *egterg:
     h_psi        :      1.18s CPU      1.23s WALL (     772 calls)
     g_psi        :      0.01s CPU      0.01s WALL (     688 calls)
     cdiaghg      :      0.15s CPU      0.16s WALL (     724 calls)

     Called by h_psi:
     h_psi:pot    :      1.18s CPU      1.23s WALL (     772 calls)
     h_psi:calbec :      0.02s CPU      0.02s WALL (     772 calls)
     vloc_psi     :      1.14s CPU      1.19s WALL (     772 calls)
     add_vuspsi   :      0.02s CPU      0.02s WALL (     772 calls)

     General routines
     calbec       :      0.02s CPU      0.02s WALL (     772 calls)
     fft          :      0.00s CPU      0.00s WALL (       3 calls)
     fftw         :      1.07s CPU      1.12s WALL (    8186 calls)
     davcio       :      0.00s CPU      0.00s WALL (      72 calls)

     Parallel routines
     fft_scatt_xy :      0.10s CPU      0.10s WALL (    8189 calls)
     fft_scatt_yz :      0.13s CPU      0.14s WALL (    8189 calls)

     PWSCF        :      1.65s CPU      1.73s WALL


   This run was terminated on:  17:58:22  13Aug2019            

=------------------------------------------------------------------------------=
   JOB DONE.
=------------------------------------------------------------------------------=
