### Running on host: assam

     Program PWSCF v.6.4.1 starts on 13Aug2019 at 17:45:36 

     This program is part of the open-source Quantum ESPRESSO suite
     for quantum simulation of materials; please cite
         "P. Giannozzi et al., J. Phys.:Condens. Matter 21 395502 (2009);
         "P. Giannozzi et al., J. Phys.:Condens. Matter 29 465901 (2017);
          URL http://www.quantum-espresso.org", 
     in publications or presentations arising from this work. More details at
     http://www.quantum-espresso.org/quote

     Parallel version (MPI), running on     2 processors

     MPI processes distributed on     1 nodes
     R & G space division:  proc/nbgrp/npool/nimage =       2
     Reading input from scf.Si.ecutwfc-28.in

     Current dimensions of program PWSCF are:
     Max number of different atomic species (ntypx) = 10
     Max number of k-points (npk) =  40000
     Max angular momentum in pseudopotentials (lmaxx) =  3

     Subspace diagonalization in iterative solution of the eigenvalue problem:
     a serial algorithm will be used


     Parallelization info
     --------------------
     sticks:   dense  smooth     PW     G-vecs:    dense   smooth      PW
     Min         189     189     60                 2513     2513     469
     Max         190     190     61                 2516     2516     472
     Sum         379     379    121                 5029     5029     941



     bravais-lattice index     =            2
     lattice parameter (alat)  =      10.0000  a.u.
     unit-cell volume          =     250.0000 (a.u.)^3
     number of atoms/cell      =            2
     number of atomic types    =            1
     number of electrons       =         8.00
     number of Kohn-Sham states=            4
     kinetic-energy cutoff     =      28.0000  Ry
     charge density cutoff     =     112.0000  Ry
     convergence threshold     =      1.0E-09
     mixing beta               =       0.7000
     number of iterations used =            8  plain     mixing
     Exchange-correlation      =  SLA  PZ   NOGX NOGC ( 1  1  0  0 0 0)

     celldm(1)=  10.000000  celldm(2)=   0.000000  celldm(3)=   0.000000
     celldm(4)=   0.000000  celldm(5)=   0.000000  celldm(6)=   0.000000

     crystal axes: (cart. coord. in units of alat)
               a(1) = (  -0.500000   0.000000   0.500000 )  
               a(2) = (   0.000000   0.500000   0.500000 )  
               a(3) = (  -0.500000   0.500000   0.000000 )  

     reciprocal axes: (cart. coord. in units 2 pi/alat)
               b(1) = ( -1.000000 -1.000000  1.000000 )  
               b(2) = (  1.000000  1.000000  1.000000 )  
               b(3) = ( -1.000000  1.000000 -1.000000 )  


     PseudoPot. # 1 for Si read from file:
     /home/matic/pw/pseudo/Si.pz-vbc.UPF
     MD5 check sum: 6dfa03ddd5817404712e03e4d12deb78
     Pseudo is Norm-conserving, Zval =  4.0
     Generated by new atomic code, or converted to UPF format
     Using radial grid of  431 points,  2 beta functions with: 
                l(1) =   0
                l(2) =   1

     atomic species   valence    mass     pseudopotential
        Si             4.00    28.08600     Si( 1.00)

     48 Sym. Ops., with inversion, found (24 have fractional translation)



   Cartesian axes

     site n.     atom                  positions (alat units)
         1           Si  tau(   1) = (   0.0000000   0.0000000   0.0000000  )
         2           Si  tau(   2) = (  -0.2500000   0.2500000   0.2500000  )

     number of k points=    10
                       cart. coord. in units 2pi/alat
        k(    1) = (  -0.1250000   0.1250000   0.1250000), wk =   0.0625000
        k(    2) = (  -0.3750000   0.3750000  -0.1250000), wk =   0.1875000
        k(    3) = (   0.3750000  -0.3750000   0.6250000), wk =   0.1875000
        k(    4) = (   0.1250000  -0.1250000   0.3750000), wk =   0.1875000
        k(    5) = (  -0.1250000   0.6250000   0.1250000), wk =   0.1875000
        k(    6) = (   0.6250000  -0.1250000   0.8750000), wk =   0.3750000
        k(    7) = (   0.3750000   0.1250000   0.6250000), wk =   0.3750000
        k(    8) = (  -0.1250000  -0.8750000   0.1250000), wk =   0.1875000
        k(    9) = (  -0.3750000   0.3750000   0.3750000), wk =   0.0625000
        k(   10) = (   0.3750000  -0.3750000   1.1250000), wk =   0.1875000

     Dense  grid:     5029 G-vectors     FFT dimensions: (  24,  24,  24)

     Estimated max dynamical RAM per process >       2.05 MB

     Estimated total dynamical RAM >       4.10 MB

     Initial potential from superposition of free atoms

     starting charge    7.99901, renormalised to    8.00000
     Starting wfcs are    8 randomized atomic wfcs

     total cpu time spent up to now is        0.1 secs

     Self-consistent Calculation

     iteration #  1     ecut=    28.00 Ry     beta= 0.70
     Davidson diagonalization with overlap
     ethr =  1.00E-02,  avg # of iterations =  2.0

     Threshold (ethr) on eigenvalues was too large:
     Diagonalizing with lowered threshold

     Davidson diagonalization with overlap
     ethr =  8.77E-04,  avg # of iterations =  1.0

     total cpu time spent up to now is        0.2 secs

     total energy              =     -15.84415431 Ry
     Harris-Foulkes estimate   =     -15.86855052 Ry
     estimated scf accuracy    <       0.06851247 Ry

     iteration #  2     ecut=    28.00 Ry     beta= 0.70
     Davidson diagonalization with overlap
     ethr =  8.56E-04,  avg # of iterations =  1.0

     total cpu time spent up to now is        0.3 secs

     total energy              =     -15.84791840 Ry
     Harris-Foulkes estimate   =     -15.84819887 Ry
     estimated scf accuracy    <       0.00218256 Ry

     iteration #  3     ecut=    28.00 Ry     beta= 0.70
     Davidson diagonalization with overlap
     ethr =  2.73E-05,  avg # of iterations =  2.5

     total cpu time spent up to now is        0.3 secs

     total energy              =     -15.84845233 Ry
     Harris-Foulkes estimate   =     -15.84848955 Ry
     estimated scf accuracy    <       0.00008526 Ry

     iteration #  4     ecut=    28.00 Ry     beta= 0.70
     Davidson diagonalization with overlap
     ethr =  1.07E-06,  avg # of iterations =  2.2

     total cpu time spent up to now is        0.4 secs

     total energy              =     -15.84847229 Ry
     Harris-Foulkes estimate   =     -15.84847700 Ry
     estimated scf accuracy    <       0.00001015 Ry

     iteration #  5     ecut=    28.00 Ry     beta= 0.70
     Davidson diagonalization with overlap
     ethr =  1.27E-07,  avg # of iterations =  2.1

     total cpu time spent up to now is        0.4 secs

     total energy              =     -15.84847377 Ry
     Harris-Foulkes estimate   =     -15.84847381 Ry
     estimated scf accuracy    <       0.00000009 Ry

     iteration #  6     ecut=    28.00 Ry     beta= 0.70
     Davidson diagonalization with overlap
     ethr =  1.08E-09,  avg # of iterations =  2.6

     total cpu time spent up to now is        0.5 secs

     End of self-consistent calculation

          k =-0.1250 0.1250 0.1250 (   618 PWs)   bands (ev):

    -5.3828   5.2440   6.5614   6.5614

          k =-0.3750 0.3750-0.1250 (   622 PWs)   bands (ev):

    -4.2598   2.0923   4.4038   6.0583

          k = 0.3750-0.3750 0.6250 (   624 PWs)   bands (ev):

    -2.9712  -0.2137   4.4762   5.2042

          k = 0.1250-0.1250 0.3750 (   619 PWs)   bands (ev):

    -4.8079   3.5879   5.4488   5.5777

          k =-0.1250 0.6250 0.1250 (   625 PWs)   bands (ev):

    -3.6828   1.8677   3.9966   4.4972

          k = 0.6250-0.1250 0.8750 (   635 PWs)   bands (ev):

    -1.8573  -0.2311   2.4563   3.6545

          k = 0.3750 0.1250 0.6250 (   627 PWs)   bands (ev):

    -3.2139   0.8488   3.3157   4.7914

          k =-0.1250-0.8750 0.1250 (   628 PWs)   bands (ev):

    -2.0733  -0.1074   3.1413   3.9909

          k =-0.3750 0.3750 0.3750 (   613 PWs)   bands (ev):

    -3.7732   0.6439   5.7223   5.7223

          k = 0.3750-0.3750 1.1250 (   630 PWs)   bands (ev):

    -2.4343  -0.0052   2.5699   4.8513

     highest occupied level (ev):     6.5614

!    total energy              =     -15.84847380 Ry
     Harris-Foulkes estimate   =     -15.84847380 Ry
     estimated scf accuracy    <          6.7E-10 Ry

     The total energy is the sum of the following terms:

     one-electron contribution =       5.24185674 Ry
     hartree contribution      =       1.03035641 Ry
     xc contribution           =      -4.88293316 Ry
     ewald contribution        =     -17.23775378 Ry

     convergence has been achieved in   6 iterations

     Writing output data file pwscf.save/

     init_run     :      0.07s CPU      0.07s WALL (       1 calls)
     electrons    :      0.39s CPU      0.43s WALL (       1 calls)

     Called by init_run:
     wfcinit      :      0.04s CPU      0.04s WALL (       1 calls)
     potinit      :      0.00s CPU      0.00s WALL (       1 calls)
     hinit0       :      0.02s CPU      0.02s WALL (       1 calls)

     Called by electrons:
     c_bands      :      0.30s CPU      0.33s WALL (       7 calls)
     sum_band     :      0.07s CPU      0.08s WALL (       7 calls)
     v_of_rho     :      0.01s CPU      0.01s WALL (       7 calls)
     mix_rho      :      0.00s CPU      0.00s WALL (       7 calls)

     Called by c_bands:
     init_us_2    :      0.01s CPU      0.01s WALL (     150 calls)
     cegterg      :      0.29s CPU      0.32s WALL (      70 calls)

     Called by sum_band:

     Called by *egterg:
     h_psi        :      0.29s CPU      0.32s WALL (     214 calls)
     g_psi        :      0.00s CPU      0.00s WALL (     134 calls)
     cdiaghg      :      0.01s CPU      0.01s WALL (     194 calls)

     Called by h_psi:
     h_psi:pot    :      0.29s CPU      0.32s WALL (     214 calls)
     h_psi:calbec :      0.01s CPU      0.01s WALL (     214 calls)
     vloc_psi     :      0.28s CPU      0.30s WALL (     214 calls)
     add_vuspsi   :      0.01s CPU      0.01s WALL (     214 calls)

     General routines
     calbec       :      0.01s CPU      0.01s WALL (     214 calls)
     fft          :      0.01s CPU      0.01s WALL (      21 calls)
     ffts         :      0.00s CPU      0.00s WALL (       7 calls)
     fftw         :      0.31s CPU      0.34s WALL (    1966 calls)

     Parallel routines
     fft_scatt_xy :      0.03s CPU      0.03s WALL (    1994 calls)
     fft_scatt_yz :      0.07s CPU      0.08s WALL (    1994 calls)

     PWSCF        :      0.49s CPU      0.52s WALL


   This run was terminated on:  17:45:37  13Aug2019            

=------------------------------------------------------------------------------=
   JOB DONE.
=------------------------------------------------------------------------------=
