### Running on host: assam

     Program PWSCF v.6.4.1 starts on 13Aug2019 at 17:45:38 

     This program is part of the open-source Quantum ESPRESSO suite
     for quantum simulation of materials; please cite
         "P. Giannozzi et al., J. Phys.:Condens. Matter 21 395502 (2009);
         "P. Giannozzi et al., J. Phys.:Condens. Matter 29 465901 (2017);
          URL http://www.quantum-espresso.org", 
     in publications or presentations arising from this work. More details at
     http://www.quantum-espresso.org/quote

     Parallel version (MPI), running on     2 processors

     MPI processes distributed on     1 nodes
     R & G space division:  proc/nbgrp/npool/nimage =       2
     Reading input from scf.Si.ecutwfc-32.in

     Current dimensions of program PWSCF are:
     Max number of different atomic species (ntypx) = 10
     Max number of k-points (npk) =  40000
     Max angular momentum in pseudopotentials (lmaxx) =  3

     Subspace diagonalization in iterative solution of the eigenvalue problem:
     a serial algorithm will be used


     Parallelization info
     --------------------
     sticks:   dense  smooth     PW     G-vecs:    dense   smooth      PW
     Min         219     219     75                 3091     3091     569
     Max         220     220     76                 3092     3092     570
     Sum         439     439    151                 6183     6183    1139



     bravais-lattice index     =            2
     lattice parameter (alat)  =      10.0000  a.u.
     unit-cell volume          =     250.0000 (a.u.)^3
     number of atoms/cell      =            2
     number of atomic types    =            1
     number of electrons       =         8.00
     number of Kohn-Sham states=            4
     kinetic-energy cutoff     =      32.0000  Ry
     charge density cutoff     =     128.0000  Ry
     convergence threshold     =      1.0E-09
     mixing beta               =       0.7000
     number of iterations used =            8  plain     mixing
     Exchange-correlation      =  SLA  PZ   NOGX NOGC ( 1  1  0  0 0 0)

     celldm(1)=  10.000000  celldm(2)=   0.000000  celldm(3)=   0.000000
     celldm(4)=   0.000000  celldm(5)=   0.000000  celldm(6)=   0.000000

     crystal axes: (cart. coord. in units of alat)
               a(1) = (  -0.500000   0.000000   0.500000 )  
               a(2) = (   0.000000   0.500000   0.500000 )  
               a(3) = (  -0.500000   0.500000   0.000000 )  

     reciprocal axes: (cart. coord. in units 2 pi/alat)
               b(1) = ( -1.000000 -1.000000  1.000000 )  
               b(2) = (  1.000000  1.000000  1.000000 )  
               b(3) = ( -1.000000  1.000000 -1.000000 )  


     PseudoPot. # 1 for Si read from file:
     /home/matic/pw/pseudo/Si.pz-vbc.UPF
     MD5 check sum: 6dfa03ddd5817404712e03e4d12deb78
     Pseudo is Norm-conserving, Zval =  4.0
     Generated by new atomic code, or converted to UPF format
     Using radial grid of  431 points,  2 beta functions with: 
                l(1) =   0
                l(2) =   1

     atomic species   valence    mass     pseudopotential
        Si             4.00    28.08600     Si( 1.00)

     48 Sym. Ops., with inversion, found (24 have fractional translation)



   Cartesian axes

     site n.     atom                  positions (alat units)
         1           Si  tau(   1) = (   0.0000000   0.0000000   0.0000000  )
         2           Si  tau(   2) = (  -0.2500000   0.2500000   0.2500000  )

     number of k points=    10
                       cart. coord. in units 2pi/alat
        k(    1) = (  -0.1250000   0.1250000   0.1250000), wk =   0.0625000
        k(    2) = (  -0.3750000   0.3750000  -0.1250000), wk =   0.1875000
        k(    3) = (   0.3750000  -0.3750000   0.6250000), wk =   0.1875000
        k(    4) = (   0.1250000  -0.1250000   0.3750000), wk =   0.1875000
        k(    5) = (  -0.1250000   0.6250000   0.1250000), wk =   0.1875000
        k(    6) = (   0.6250000  -0.1250000   0.8750000), wk =   0.3750000
        k(    7) = (   0.3750000   0.1250000   0.6250000), wk =   0.3750000
        k(    8) = (  -0.1250000  -0.8750000   0.1250000), wk =   0.1875000
        k(    9) = (  -0.3750000   0.3750000   0.3750000), wk =   0.0625000
        k(   10) = (   0.3750000  -0.3750000   1.1250000), wk =   0.1875000

     Dense  grid:     6183 G-vectors     FFT dimensions: (  32,  32,  32)

     Estimated max dynamical RAM per process >       3.04 MB

     Estimated total dynamical RAM >       6.07 MB

     Initial potential from superposition of free atoms

     starting charge    7.99901, renormalised to    8.00000
     Starting wfcs are    8 randomized atomic wfcs

     total cpu time spent up to now is        0.1 secs

     Self-consistent Calculation

     iteration #  1     ecut=    32.00 Ry     beta= 0.70
     Davidson diagonalization with overlap
     ethr =  1.00E-02,  avg # of iterations =  2.0

     Threshold (ethr) on eigenvalues was too large:
     Diagonalizing with lowered threshold

     Davidson diagonalization with overlap
     ethr =  8.79E-04,  avg # of iterations =  1.0

     total cpu time spent up to now is        0.3 secs

     total energy              =     -15.84472487 Ry
     Harris-Foulkes estimate   =     -15.86913476 Ry
     estimated scf accuracy    <       0.06852569 Ry

     iteration #  2     ecut=    32.00 Ry     beta= 0.70
     Davidson diagonalization with overlap
     ethr =  8.57E-04,  avg # of iterations =  1.0

     total cpu time spent up to now is        0.3 secs

     total energy              =     -15.84848507 Ry
     Harris-Foulkes estimate   =     -15.84876561 Ry
     estimated scf accuracy    <       0.00218046 Ry

     iteration #  3     ecut=    32.00 Ry     beta= 0.70
     Davidson diagonalization with overlap
     ethr =  2.73E-05,  avg # of iterations =  2.5

     total cpu time spent up to now is        0.4 secs

     total energy              =     -15.84901941 Ry
     Harris-Foulkes estimate   =     -15.84905647 Ry
     estimated scf accuracy    <       0.00008530 Ry

     iteration #  4     ecut=    32.00 Ry     beta= 0.70
     Davidson diagonalization with overlap
     ethr =  1.07E-06,  avg # of iterations =  2.2

     total cpu time spent up to now is        0.5 secs

     total energy              =     -15.84904053 Ry
     Harris-Foulkes estimate   =     -15.84904527 Ry
     estimated scf accuracy    <       0.00001026 Ry

     iteration #  5     ecut=    32.00 Ry     beta= 0.70
     Davidson diagonalization with overlap
     ethr =  1.28E-07,  avg # of iterations =  2.0

     total cpu time spent up to now is        0.6 secs

     total energy              =     -15.84904209 Ry
     Harris-Foulkes estimate   =     -15.84904213 Ry
     estimated scf accuracy    <       0.00000010 Ry

     iteration #  6     ecut=    32.00 Ry     beta= 0.70
     Davidson diagonalization with overlap
     ethr =  1.21E-09,  avg # of iterations =  2.6

     total cpu time spent up to now is        0.8 secs

     End of self-consistent calculation

          k =-0.1250 0.1250 0.1250 (   770 PWs)   bands (ev):

    -5.3828   5.2424   6.5598   6.5598

          k =-0.3750 0.3750-0.1250 (   773 PWs)   bands (ev):

    -4.2599   2.0915   4.4027   6.0570

          k = 0.3750-0.3750 0.6250 (   763 PWs)   bands (ev):

    -2.9714  -0.2142   4.4751   5.2033

          k = 0.1250-0.1250 0.3750 (   768 PWs)   bands (ev):

    -4.8079   3.5864   5.4477   5.5762

          k =-0.1250 0.6250 0.1250 (   766 PWs)   bands (ev):

    -3.6830   1.8666   3.9959   4.4965

          k = 0.6250-0.1250 0.8750 (   755 PWs)   bands (ev):

    -1.8575  -0.2316   2.4558   3.6539

          k = 0.3750 0.1250 0.6250 (   768 PWs)   bands (ev):

    -3.2141   0.8481   3.3149   4.7904

          k =-0.1250-0.8750 0.1250 (   762 PWs)   bands (ev):

    -2.0737  -0.1080   3.1408   3.9903

          k =-0.3750 0.3750 0.3750 (   763 PWs)   bands (ev):

    -3.7733   0.6434   5.7210   5.7210

          k = 0.3750-0.3750 1.1250 (   767 PWs)   bands (ev):

    -2.4345  -0.0058   2.5694   4.8506

     highest occupied level (ev):     6.5598

!    total energy              =     -15.84904213 Ry
     Harris-Foulkes estimate   =     -15.84904213 Ry
     estimated scf accuracy    <          9.3E-10 Ry

     The total energy is the sum of the following terms:

     one-electron contribution =       5.24114699 Ry
     hartree contribution      =       1.03056104 Ry
     xc contribution           =      -4.88299639 Ry
     ewald contribution        =     -17.23775378 Ry

     convergence has been achieved in   6 iterations

     Writing output data file pwscf.save/

     init_run     :      0.07s CPU      0.08s WALL (       1 calls)
     electrons    :      0.64s CPU      0.66s WALL (       1 calls)

     Called by init_run:
     wfcinit      :      0.05s CPU      0.05s WALL (       1 calls)
     potinit      :      0.01s CPU      0.01s WALL (       1 calls)
     hinit0       :      0.02s CPU      0.02s WALL (       1 calls)

     Called by electrons:
     c_bands      :      0.51s CPU      0.53s WALL (       7 calls)
     sum_band     :      0.10s CPU      0.11s WALL (       7 calls)
     v_of_rho     :      0.02s CPU      0.02s WALL (       7 calls)
     mix_rho      :      0.01s CPU      0.01s WALL (       7 calls)

     Called by c_bands:
     init_us_2    :      0.01s CPU      0.02s WALL (     150 calls)
     cegterg      :      0.50s CPU      0.51s WALL (      70 calls)

     Called by sum_band:

     Called by *egterg:
     h_psi        :      0.51s CPU      0.52s WALL (     213 calls)
     g_psi        :      0.00s CPU      0.00s WALL (     133 calls)
     cdiaghg      :      0.01s CPU      0.01s WALL (     193 calls)

     Called by h_psi:
     h_psi:pot    :      0.50s CPU      0.52s WALL (     213 calls)
     h_psi:calbec :      0.01s CPU      0.01s WALL (     213 calls)
     vloc_psi     :      0.49s CPU      0.50s WALL (     213 calls)
     add_vuspsi   :      0.01s CPU      0.01s WALL (     213 calls)

     General routines
     calbec       :      0.01s CPU      0.01s WALL (     213 calls)
     fft          :      0.01s CPU      0.01s WALL (      21 calls)
     ffts         :      0.00s CPU      0.00s WALL (       7 calls)
     fftw         :      0.52s CPU      0.53s WALL (    1968 calls)

     Parallel routines
     fft_scatt_xy :      0.06s CPU      0.06s WALL (    1996 calls)
     fft_scatt_yz :      0.06s CPU      0.06s WALL (    1996 calls)

     PWSCF        :      0.74s CPU      0.76s WALL


   This run was terminated on:  17:45:38  13Aug2019            

=------------------------------------------------------------------------------=
   JOB DONE.
=------------------------------------------------------------------------------=
