### Running on host: assam

     Program PWSCF v.6.4.1 starts on 13Aug2019 at 17:45:35 

     This program is part of the open-source Quantum ESPRESSO suite
     for quantum simulation of materials; please cite
         "P. Giannozzi et al., J. Phys.:Condens. Matter 21 395502 (2009);
         "P. Giannozzi et al., J. Phys.:Condens. Matter 29 465901 (2017);
          URL http://www.quantum-espresso.org", 
     in publications or presentations arising from this work. More details at
     http://www.quantum-espresso.org/quote

     Parallel version (MPI), running on     2 processors

     MPI processes distributed on     1 nodes
     R & G space division:  proc/nbgrp/npool/nimage =       2
     Reading input from scf.Si.ecutwfc-24.in

     Current dimensions of program PWSCF are:
     Max number of different atomic species (ntypx) = 10
     Max number of k-points (npk) =  40000
     Max angular momentum in pseudopotentials (lmaxx) =  3

     Subspace diagonalization in iterative solution of the eigenvalue problem:
     a serial algorithm will be used


     Parallelization info
     --------------------
     sticks:   dense  smooth     PW     G-vecs:    dense   smooth      PW
     Min         167     167     54                 1971     1971     373
     Max         170     170     55                 1972     1972     376
     Sum         337     337    109                 3943     3943     749



     bravais-lattice index     =            2
     lattice parameter (alat)  =      10.0000  a.u.
     unit-cell volume          =     250.0000 (a.u.)^3
     number of atoms/cell      =            2
     number of atomic types    =            1
     number of electrons       =         8.00
     number of Kohn-Sham states=            4
     kinetic-energy cutoff     =      24.0000  Ry
     charge density cutoff     =      96.0000  Ry
     convergence threshold     =      1.0E-09
     mixing beta               =       0.7000
     number of iterations used =            8  plain     mixing
     Exchange-correlation      =  SLA  PZ   NOGX NOGC ( 1  1  0  0 0 0)

     celldm(1)=  10.000000  celldm(2)=   0.000000  celldm(3)=   0.000000
     celldm(4)=   0.000000  celldm(5)=   0.000000  celldm(6)=   0.000000

     crystal axes: (cart. coord. in units of alat)
               a(1) = (  -0.500000   0.000000   0.500000 )  
               a(2) = (   0.000000   0.500000   0.500000 )  
               a(3) = (  -0.500000   0.500000   0.000000 )  

     reciprocal axes: (cart. coord. in units 2 pi/alat)
               b(1) = ( -1.000000 -1.000000  1.000000 )  
               b(2) = (  1.000000  1.000000  1.000000 )  
               b(3) = ( -1.000000  1.000000 -1.000000 )  


     PseudoPot. # 1 for Si read from file:
     /home/matic/pw/pseudo/Si.pz-vbc.UPF
     MD5 check sum: 6dfa03ddd5817404712e03e4d12deb78
     Pseudo is Norm-conserving, Zval =  4.0
     Generated by new atomic code, or converted to UPF format
     Using radial grid of  431 points,  2 beta functions with: 
                l(1) =   0
                l(2) =   1

     atomic species   valence    mass     pseudopotential
        Si             4.00    28.08600     Si( 1.00)

     48 Sym. Ops., with inversion, found (24 have fractional translation)



   Cartesian axes

     site n.     atom                  positions (alat units)
         1           Si  tau(   1) = (   0.0000000   0.0000000   0.0000000  )
         2           Si  tau(   2) = (  -0.2500000   0.2500000   0.2500000  )

     number of k points=    10
                       cart. coord. in units 2pi/alat
        k(    1) = (  -0.1250000   0.1250000   0.1250000), wk =   0.0625000
        k(    2) = (  -0.3750000   0.3750000  -0.1250000), wk =   0.1875000
        k(    3) = (   0.3750000  -0.3750000   0.6250000), wk =   0.1875000
        k(    4) = (   0.1250000  -0.1250000   0.3750000), wk =   0.1875000
        k(    5) = (  -0.1250000   0.6250000   0.1250000), wk =   0.1875000
        k(    6) = (   0.6250000  -0.1250000   0.8750000), wk =   0.3750000
        k(    7) = (   0.3750000   0.1250000   0.6250000), wk =   0.3750000
        k(    8) = (  -0.1250000  -0.8750000   0.1250000), wk =   0.1875000
        k(    9) = (  -0.3750000   0.3750000   0.3750000), wk =   0.0625000
        k(   10) = (   0.3750000  -0.3750000   1.1250000), wk =   0.1875000

     Dense  grid:     3943 G-vectors     FFT dimensions: (  24,  24,  24)

     Estimated max dynamical RAM per process >       1.73 MB

     Estimated total dynamical RAM >       3.46 MB

     Initial potential from superposition of free atoms

     starting charge    7.99901, renormalised to    8.00000
     Starting wfcs are    8 randomized atomic wfcs

     total cpu time spent up to now is        0.1 secs

     Self-consistent Calculation

     iteration #  1     ecut=    24.00 Ry     beta= 0.70
     Davidson diagonalization with overlap
     ethr =  1.00E-02,  avg # of iterations =  2.0

     Threshold (ethr) on eigenvalues was too large:
     Diagonalizing with lowered threshold

     Davidson diagonalization with overlap
     ethr =  8.72E-04,  avg # of iterations =  1.0

     total cpu time spent up to now is        0.2 secs

     total energy              =     -15.84296291 Ry
     Harris-Foulkes estimate   =     -15.86734348 Ry
     estimated scf accuracy    <       0.06836919 Ry

     iteration #  2     ecut=    24.00 Ry     beta= 0.70
     Davidson diagonalization with overlap
     ethr =  8.55E-04,  avg # of iterations =  1.0

     total cpu time spent up to now is        0.2 secs

     total energy              =     -15.84671509 Ry
     Harris-Foulkes estimate   =     -15.84699884 Ry
     estimated scf accuracy    <       0.00218084 Ry

     iteration #  3     ecut=    24.00 Ry     beta= 0.70
     Davidson diagonalization with overlap
     ethr =  2.73E-05,  avg # of iterations =  2.5

     total cpu time spent up to now is        0.2 secs

     total energy              =     -15.84723980 Ry
     Harris-Foulkes estimate   =     -15.84727659 Ry
     estimated scf accuracy    <       0.00008339 Ry

     iteration #  4     ecut=    24.00 Ry     beta= 0.70
     Davidson diagonalization with overlap
     ethr =  1.04E-06,  avg # of iterations =  2.2

     total cpu time spent up to now is        0.3 secs

     total energy              =     -15.84725861 Ry
     Harris-Foulkes estimate   =     -15.84726284 Ry
     estimated scf accuracy    <       0.00000913 Ry

     iteration #  5     ecut=    24.00 Ry     beta= 0.70
     Davidson diagonalization with overlap
     ethr =  1.14E-07,  avg # of iterations =  2.0

     total cpu time spent up to now is        0.4 secs

     total energy              =     -15.84725997 Ry
     Harris-Foulkes estimate   =     -15.84726001 Ry
     estimated scf accuracy    <       0.00000008 Ry

     iteration #  6     ecut=    24.00 Ry     beta= 0.70
     Davidson diagonalization with overlap
     ethr =  1.05E-09,  avg # of iterations =  2.7

     total cpu time spent up to now is        0.4 secs

     total energy              =     -15.84726001 Ry
     Harris-Foulkes estimate   =     -15.84726001 Ry
     estimated scf accuracy    <          1.2E-09 Ry

     iteration #  7     ecut=    24.00 Ry     beta= 0.70
     Davidson diagonalization with overlap
     ethr =  1.49E-11,  avg # of iterations =  2.3

     total cpu time spent up to now is        0.5 secs

     End of self-consistent calculation

          k =-0.1250 0.1250 0.1250 (   513 PWs)   bands (ev):

    -5.3830   5.2468   6.5643   6.5643

          k =-0.3750 0.3750-0.1250 (   501 PWs)   bands (ev):

    -4.2599   2.0940   4.4062   6.0608

          k = 0.3750-0.3750 0.6250 (   496 PWs)   bands (ev):

    -2.9712  -0.2127   4.4781   5.2069

          k = 0.1250-0.1250 0.3750 (   498 PWs)   bands (ev):

    -4.8079   3.5899   5.4520   5.5807

          k =-0.1250 0.6250 0.1250 (   494 PWs)   bands (ev):

    -3.6827   1.8691   3.9987   4.4997

          k = 0.6250-0.1250 0.8750 (   494 PWs)   bands (ev):

    -1.8570  -0.2304   2.4578   3.6565

          k = 0.3750 0.1250 0.6250 (   494 PWs)   bands (ev):

    -3.2137   0.8500   3.3176   4.7941

          k =-0.1250-0.8750 0.1250 (   486 PWs)   bands (ev):

    -2.0729  -0.1066   3.1431   3.9931

          k =-0.3750 0.3750 0.3750 (   492 PWs)   bands (ev):

    -3.7733   0.6451   5.7254   5.7254

          k = 0.3750-0.3750 1.1250 (   495 PWs)   bands (ev):

    -2.4340  -0.0042   2.5715   4.8537

     highest occupied level (ev):     6.5643

!    total energy              =     -15.84726001 Ry
     Harris-Foulkes estimate   =     -15.84726001 Ry
     estimated scf accuracy    <          1.8E-12 Ry

     The total energy is the sum of the following terms:

     one-electron contribution =       5.24315045 Ry
     hartree contribution      =       1.02989105 Ry
     xc contribution           =      -4.88254776 Ry
     ewald contribution        =     -17.23775375 Ry

     convergence has been achieved in   7 iterations

     Writing output data file pwscf.save/

     init_run     :      0.05s CPU      0.05s WALL (       1 calls)
     electrons    :      0.40s CPU      0.40s WALL (       1 calls)

     Called by init_run:
     wfcinit      :      0.03s CPU      0.03s WALL (       1 calls)
     potinit      :      0.00s CPU      0.00s WALL (       1 calls)
     hinit0       :      0.01s CPU      0.01s WALL (       1 calls)

     Called by electrons:
     c_bands      :      0.32s CPU      0.32s WALL (       8 calls)
     sum_band     :      0.07s CPU      0.07s WALL (       8 calls)
     v_of_rho     :      0.01s CPU      0.01s WALL (       8 calls)
     mix_rho      :      0.00s CPU      0.00s WALL (       8 calls)

     Called by c_bands:
     init_us_2    :      0.01s CPU      0.01s WALL (     170 calls)
     cegterg      :      0.31s CPU      0.31s WALL (      80 calls)

     Called by sum_band:

     Called by *egterg:
     h_psi        :      0.30s CPU      0.31s WALL (     247 calls)
     g_psi        :      0.00s CPU      0.00s WALL (     157 calls)
     cdiaghg      :      0.01s CPU      0.01s WALL (     227 calls)

     Called by h_psi:
     h_psi:pot    :      0.30s CPU      0.30s WALL (     247 calls)
     h_psi:calbec :      0.01s CPU      0.01s WALL (     247 calls)
     vloc_psi     :      0.29s CPU      0.29s WALL (     247 calls)
     add_vuspsi   :      0.00s CPU      0.00s WALL (     247 calls)

     General routines
     calbec       :      0.01s CPU      0.01s WALL (     247 calls)
     fft          :      0.01s CPU      0.01s WALL (      24 calls)
     ffts         :      0.00s CPU      0.00s WALL (       8 calls)
     fftw         :      0.32s CPU      0.32s WALL (    2208 calls)

     Parallel routines
     fft_scatt_xy :      0.03s CPU      0.03s WALL (    2240 calls)
     fft_scatt_yz :      0.05s CPU      0.05s WALL (    2240 calls)

     PWSCF        :      0.46s CPU      0.48s WALL


   This run was terminated on:  17:45:36  13Aug2019            

=------------------------------------------------------------------------------=
   JOB DONE.
=------------------------------------------------------------------------------=
