### Running on host: assam

     Program PWSCF v.6.4.1 starts on 13Aug2019 at 17:45:34 

     This program is part of the open-source Quantum ESPRESSO suite
     for quantum simulation of materials; please cite
         "P. Giannozzi et al., J. Phys.:Condens. Matter 21 395502 (2009);
         "P. Giannozzi et al., J. Phys.:Condens. Matter 29 465901 (2017);
          URL http://www.quantum-espresso.org", 
     in publications or presentations arising from this work. More details at
     http://www.quantum-espresso.org/quote

     Parallel version (MPI), running on     2 processors

     MPI processes distributed on     1 nodes
     R & G space division:  proc/nbgrp/npool/nimage =       2
     Reading input from scf.Si.ecutwfc-20.in

     Current dimensions of program PWSCF are:
     Max number of different atomic species (ntypx) = 10
     Max number of k-points (npk) =  40000
     Max angular momentum in pseudopotentials (lmaxx) =  3

     Subspace diagonalization in iterative solution of the eigenvalue problem:
     a serial algorithm will be used


     Parallelization info
     --------------------
     sticks:   dense  smooth     PW     G-vecs:    dense   smooth      PW
     Min         135     135     45                 1487     1487     304
     Max         136     136     46                 1488     1488     305
     Sum         271     271     91                 2975     2975     609



     bravais-lattice index     =            2
     lattice parameter (alat)  =      10.0000  a.u.
     unit-cell volume          =     250.0000 (a.u.)^3
     number of atoms/cell      =            2
     number of atomic types    =            1
     number of electrons       =         8.00
     number of Kohn-Sham states=            4
     kinetic-energy cutoff     =      20.0000  Ry
     charge density cutoff     =      80.0000  Ry
     convergence threshold     =      1.0E-09
     mixing beta               =       0.7000
     number of iterations used =            8  plain     mixing
     Exchange-correlation      =  SLA  PZ   NOGX NOGC ( 1  1  0  0 0 0)

     celldm(1)=  10.000000  celldm(2)=   0.000000  celldm(3)=   0.000000
     celldm(4)=   0.000000  celldm(5)=   0.000000  celldm(6)=   0.000000

     crystal axes: (cart. coord. in units of alat)
               a(1) = (  -0.500000   0.000000   0.500000 )  
               a(2) = (   0.000000   0.500000   0.500000 )  
               a(3) = (  -0.500000   0.500000   0.000000 )  

     reciprocal axes: (cart. coord. in units 2 pi/alat)
               b(1) = ( -1.000000 -1.000000  1.000000 )  
               b(2) = (  1.000000  1.000000  1.000000 )  
               b(3) = ( -1.000000  1.000000 -1.000000 )  


     PseudoPot. # 1 for Si read from file:
     /home/matic/pw/pseudo/Si.pz-vbc.UPF
     MD5 check sum: 6dfa03ddd5817404712e03e4d12deb78
     Pseudo is Norm-conserving, Zval =  4.0
     Generated by new atomic code, or converted to UPF format
     Using radial grid of  431 points,  2 beta functions with: 
                l(1) =   0
                l(2) =   1

     atomic species   valence    mass     pseudopotential
        Si             4.00    28.08600     Si( 1.00)

     48 Sym. Ops., with inversion, found (24 have fractional translation)



   Cartesian axes

     site n.     atom                  positions (alat units)
         1           Si  tau(   1) = (   0.0000000   0.0000000   0.0000000  )
         2           Si  tau(   2) = (  -0.2500000   0.2500000   0.2500000  )

     number of k points=    10
                       cart. coord. in units 2pi/alat
        k(    1) = (  -0.1250000   0.1250000   0.1250000), wk =   0.0625000
        k(    2) = (  -0.3750000   0.3750000  -0.1250000), wk =   0.1875000
        k(    3) = (   0.3750000  -0.3750000   0.6250000), wk =   0.1875000
        k(    4) = (   0.1250000  -0.1250000   0.3750000), wk =   0.1875000
        k(    5) = (  -0.1250000   0.6250000   0.1250000), wk =   0.1875000
        k(    6) = (   0.6250000  -0.1250000   0.8750000), wk =   0.3750000
        k(    7) = (   0.3750000   0.1250000   0.6250000), wk =   0.3750000
        k(    8) = (  -0.1250000  -0.8750000   0.1250000), wk =   0.1875000
        k(    9) = (  -0.3750000   0.3750000   0.3750000), wk =   0.0625000
        k(   10) = (   0.3750000  -0.3750000   1.1250000), wk =   0.1875000

     Dense  grid:     2975 G-vectors     FFT dimensions: (  24,  24,  24)

     Estimated max dynamical RAM per process >       1.45 MB

     Estimated total dynamical RAM >       2.89 MB

     Initial potential from superposition of free atoms

     starting charge    7.99901, renormalised to    8.00000
     Starting wfcs are    8 randomized atomic wfcs

     total cpu time spent up to now is        0.1 secs

     Self-consistent Calculation

     iteration #  1     ecut=    20.00 Ry     beta= 0.70
     Davidson diagonalization with overlap
     ethr =  1.00E-02,  avg # of iterations =  2.0

     Threshold (ethr) on eigenvalues was too large:
     Diagonalizing with lowered threshold

     Davidson diagonalization with overlap
     ethr =  8.64E-04,  avg # of iterations =  1.0

     total cpu time spent up to now is        0.1 secs

     total energy              =     -15.83966524 Ry
     Harris-Foulkes estimate   =     -15.86405860 Ry
     estimated scf accuracy    <       0.06815723 Ry

     iteration #  2     ecut=    20.00 Ry     beta= 0.70
     Davidson diagonalization with overlap
     ethr =  8.52E-04,  avg # of iterations =  1.0

     total cpu time spent up to now is        0.2 secs

     total energy              =     -15.84343007 Ry
     Harris-Foulkes estimate   =     -15.84371792 Ry
     estimated scf accuracy    <       0.00217251 Ry

     iteration #  3     ecut=    20.00 Ry     beta= 0.70
     Davidson diagonalization with overlap
     ethr =  2.72E-05,  avg # of iterations =  2.5

     total cpu time spent up to now is        0.2 secs

     total energy              =     -15.84396099 Ry
     Harris-Foulkes estimate   =     -15.84399874 Ry
     estimated scf accuracy    <       0.00008338 Ry

     iteration #  4     ecut=    20.00 Ry     beta= 0.70
     Davidson diagonalization with overlap
     ethr =  1.04E-06,  avg # of iterations =  2.1

     total cpu time spent up to now is        0.3 secs

     total energy              =     -15.84397852 Ry
     Harris-Foulkes estimate   =     -15.84398273 Ry
     estimated scf accuracy    <       0.00000913 Ry

     iteration #  5     ecut=    20.00 Ry     beta= 0.70
     Davidson diagonalization with overlap
     ethr =  1.14E-07,  avg # of iterations =  2.1

     total cpu time spent up to now is        0.3 secs

     total energy              =     -15.84397987 Ry
     Harris-Foulkes estimate   =     -15.84397990 Ry
     estimated scf accuracy    <       0.00000007 Ry

     iteration #  6     ecut=    20.00 Ry     beta= 0.70
     Davidson diagonalization with overlap
     ethr =  8.31E-10,  avg # of iterations =  2.7

     total cpu time spent up to now is        0.4 secs

     total energy              =     -15.84397990 Ry
     Harris-Foulkes estimate   =     -15.84397990 Ry
     estimated scf accuracy    <          1.8E-09 Ry

     iteration #  7     ecut=    20.00 Ry     beta= 0.70
     Davidson diagonalization with overlap
     ethr =  2.19E-11,  avg # of iterations =  1.8

     total cpu time spent up to now is        0.4 secs

     End of self-consistent calculation

          k =-0.1250 0.1250 0.1250 (   362 PWs)   bands (ev):

    -5.3783   5.2552   6.5771   6.5771

          k =-0.3750 0.3750-0.1250 (   372 PWs)   bands (ev):

    -4.2562   2.0982   4.4121   6.0697

          k = 0.3750-0.3750 0.6250 (   379 PWs)   bands (ev):

    -2.9668  -0.2107   4.4839   5.2125

          k = 0.1250-0.1250 0.3750 (   370 PWs)   bands (ev):

    -4.8037   3.5954   5.4589   5.5888

          k =-0.1250 0.6250 0.1250 (   376 PWs)   bands (ev):

    -3.6789   1.8741   4.0037   4.5042

          k = 0.6250-0.1250 0.8750 (   382 PWs)   bands (ev):

    -1.8526  -0.2267   2.4607   3.6601

          k = 0.3750 0.1250 0.6250 (   378 PWs)   bands (ev):

    -3.2101   0.8532   3.3219   4.7994

          k =-0.1250-0.8750 0.1250 (   374 PWs)   bands (ev):

    -2.0678  -0.1023   3.1464   3.9962

          k =-0.3750 0.3750 0.3750 (   368 PWs)   bands (ev):

    -3.7687   0.6487   5.7330   5.7330

          k = 0.3750-0.3750 1.1250 (   380 PWs)   bands (ev):

    -2.4296  -0.0016   2.5748   4.8578

     highest occupied level (ev):     6.5771

!    total energy              =     -15.84397990 Ry
     Harris-Foulkes estimate   =     -15.84397990 Ry
     estimated scf accuracy    <          2.4E-11 Ry

     The total energy is the sum of the following terms:

     one-electron contribution =       5.24636673 Ry
     hartree contribution      =       1.02903402 Ry
     xc contribution           =      -4.88162687 Ry
     ewald contribution        =     -17.23775378 Ry

     convergence has been achieved in   7 iterations

     Writing output data file pwscf.save/

     init_run     :      0.04s CPU      0.05s WALL (       1 calls)
     electrons    :      0.34s CPU      0.36s WALL (       1 calls)

     Called by init_run:
     wfcinit      :      0.02s CPU      0.03s WALL (       1 calls)
     potinit      :      0.00s CPU      0.00s WALL (       1 calls)
     hinit0       :      0.01s CPU      0.01s WALL (       1 calls)

     Called by electrons:
     c_bands      :      0.27s CPU      0.29s WALL (       8 calls)
     sum_band     :      0.06s CPU      0.06s WALL (       8 calls)
     v_of_rho     :      0.01s CPU      0.01s WALL (       8 calls)
     mix_rho      :      0.00s CPU      0.00s WALL (       8 calls)

     Called by c_bands:
     init_us_2    :      0.01s CPU      0.01s WALL (     170 calls)
     cegterg      :      0.26s CPU      0.29s WALL (      80 calls)

     Called by sum_band:

     Called by *egterg:
     h_psi        :      0.25s CPU      0.28s WALL (     242 calls)
     g_psi        :      0.00s CPU      0.00s WALL (     152 calls)
     cdiaghg      :      0.01s CPU      0.01s WALL (     222 calls)

     Called by h_psi:
     h_psi:pot    :      0.25s CPU      0.28s WALL (     242 calls)
     h_psi:calbec :      0.00s CPU      0.01s WALL (     242 calls)
     vloc_psi     :      0.24s CPU      0.27s WALL (     242 calls)
     add_vuspsi   :      0.00s CPU      0.00s WALL (     242 calls)

     General routines
     calbec       :      0.00s CPU      0.00s WALL (     242 calls)
     fft          :      0.00s CPU      0.00s WALL (      24 calls)
     ffts         :      0.00s CPU      0.00s WALL (       8 calls)
     fftw         :      0.26s CPU      0.29s WALL (    2178 calls)

     Parallel routines
     fft_scatt_xy :      0.03s CPU      0.03s WALL (    2210 calls)
     fft_scatt_yz :      0.04s CPU      0.04s WALL (    2210 calls)

     PWSCF        :      0.39s CPU      0.43s WALL


   This run was terminated on:  17:45:34  13Aug2019            

=------------------------------------------------------------------------------=
   JOB DONE.
=------------------------------------------------------------------------------=
