### Running on host: assam

     Program PWSCF v.6.4.1 starts on 13Aug2019 at 17:45:33 

     This program is part of the open-source Quantum ESPRESSO suite
     for quantum simulation of materials; please cite
         "P. Giannozzi et al., J. Phys.:Condens. Matter 21 395502 (2009);
         "P. Giannozzi et al., J. Phys.:Condens. Matter 29 465901 (2017);
          URL http://www.quantum-espresso.org", 
     in publications or presentations arising from this work. More details at
     http://www.quantum-espresso.org/quote

     Parallel version (MPI), running on     2 processors

     MPI processes distributed on     1 nodes
     R & G space division:  proc/nbgrp/npool/nimage =       2
     Reading input from scf.Si.ecutwfc-16.in

     Current dimensions of program PWSCF are:
     Max number of different atomic species (ntypx) = 10
     Max number of k-points (npk) =  40000
     Max angular momentum in pseudopotentials (lmaxx) =  3

     Subspace diagonalization in iterative solution of the eigenvalue problem:
     a serial algorithm will be used


     Parallelization info
     --------------------
     sticks:   dense  smooth     PW     G-vecs:    dense   smooth      PW
     Min         105     105     42                 1054     1054     229
     Max         106     106     43                 1055     1055     230
     Sum         211     211     85                 2109     2109     459



     bravais-lattice index     =            2
     lattice parameter (alat)  =      10.0000  a.u.
     unit-cell volume          =     250.0000 (a.u.)^3
     number of atoms/cell      =            2
     number of atomic types    =            1
     number of electrons       =         8.00
     number of Kohn-Sham states=            4
     kinetic-energy cutoff     =      16.0000  Ry
     charge density cutoff     =      64.0000  Ry
     convergence threshold     =      1.0E-09
     mixing beta               =       0.7000
     number of iterations used =            8  plain     mixing
     Exchange-correlation      =  SLA  PZ   NOGX NOGC ( 1  1  0  0 0 0)

     celldm(1)=  10.000000  celldm(2)=   0.000000  celldm(3)=   0.000000
     celldm(4)=   0.000000  celldm(5)=   0.000000  celldm(6)=   0.000000

     crystal axes: (cart. coord. in units of alat)
               a(1) = (  -0.500000   0.000000   0.500000 )  
               a(2) = (   0.000000   0.500000   0.500000 )  
               a(3) = (  -0.500000   0.500000   0.000000 )  

     reciprocal axes: (cart. coord. in units 2 pi/alat)
               b(1) = ( -1.000000 -1.000000  1.000000 )  
               b(2) = (  1.000000  1.000000  1.000000 )  
               b(3) = ( -1.000000  1.000000 -1.000000 )  


     PseudoPot. # 1 for Si read from file:
     /home/matic/pw/pseudo/Si.pz-vbc.UPF
     MD5 check sum: 6dfa03ddd5817404712e03e4d12deb78
     Pseudo is Norm-conserving, Zval =  4.0
     Generated by new atomic code, or converted to UPF format
     Using radial grid of  431 points,  2 beta functions with: 
                l(1) =   0
                l(2) =   1

     atomic species   valence    mass     pseudopotential
        Si             4.00    28.08600     Si( 1.00)

     48 Sym. Ops., with inversion, found (24 have fractional translation)



   Cartesian axes

     site n.     atom                  positions (alat units)
         1           Si  tau(   1) = (   0.0000000   0.0000000   0.0000000  )
         2           Si  tau(   2) = (  -0.2500000   0.2500000   0.2500000  )

     number of k points=    10
                       cart. coord. in units 2pi/alat
        k(    1) = (  -0.1250000   0.1250000   0.1250000), wk =   0.0625000
        k(    2) = (  -0.3750000   0.3750000  -0.1250000), wk =   0.1875000
        k(    3) = (   0.3750000  -0.3750000   0.6250000), wk =   0.1875000
        k(    4) = (   0.1250000  -0.1250000   0.3750000), wk =   0.1875000
        k(    5) = (  -0.1250000   0.6250000   0.1250000), wk =   0.1875000
        k(    6) = (   0.6250000  -0.1250000   0.8750000), wk =   0.3750000
        k(    7) = (   0.3750000   0.1250000   0.6250000), wk =   0.3750000
        k(    8) = (  -0.1250000  -0.8750000   0.1250000), wk =   0.1875000
        k(    9) = (  -0.3750000   0.3750000   0.3750000), wk =   0.0625000
        k(   10) = (   0.3750000  -0.3750000   1.1250000), wk =   0.1875000

     Dense  grid:     2109 G-vectors     FFT dimensions: (  20,  20,  20)

     Estimated max dynamical RAM per process >       0.99 MB

     Estimated total dynamical RAM >       1.97 MB

     Initial potential from superposition of free atoms

     starting charge    7.99901, renormalised to    8.00000
     Starting wfcs are    8 randomized atomic wfcs

     total cpu time spent up to now is        0.0 secs

     Self-consistent Calculation

     iteration #  1     ecut=    16.00 Ry     beta= 0.70
     Davidson diagonalization with overlap
     ethr =  1.00E-02,  avg # of iterations =  2.0

     Threshold (ethr) on eigenvalues was too large:
     Diagonalizing with lowered threshold

     Davidson diagonalization with overlap
     ethr =  8.50E-04,  avg # of iterations =  1.0

     total cpu time spent up to now is        0.1 secs

     total energy              =     -15.83084381 Ry
     Harris-Foulkes estimate   =     -15.85508807 Ry
     estimated scf accuracy    <       0.06749729 Ry

     iteration #  2     ecut=    16.00 Ry     beta= 0.70
     Davidson diagonalization with overlap
     ethr =  8.44E-04,  avg # of iterations =  1.0

     total cpu time spent up to now is        0.1 secs

     total energy              =     -15.83455426 Ry
     Harris-Foulkes estimate   =     -15.83485697 Ry
     estimated scf accuracy    <       0.00216350 Ry

     iteration #  3     ecut=    16.00 Ry     beta= 0.70
     Davidson diagonalization with overlap
     ethr =  2.70E-05,  avg # of iterations =  2.5

     total cpu time spent up to now is        0.2 secs

     total energy              =     -15.83508099 Ry
     Harris-Foulkes estimate   =     -15.83511797 Ry
     estimated scf accuracy    <       0.00008094 Ry

     iteration #  4     ecut=    16.00 Ry     beta= 0.70
     Davidson diagonalization with overlap
     ethr =  1.01E-06,  avg # of iterations =  2.2

     total cpu time spent up to now is        0.2 secs

     total energy              =     -15.83509807 Ry
     Harris-Foulkes estimate   =     -15.83510177 Ry
     estimated scf accuracy    <       0.00000822 Ry

     iteration #  5     ecut=    16.00 Ry     beta= 0.70
     Davidson diagonalization with overlap
     ethr =  1.03E-07,  avg # of iterations =  2.0

     total cpu time spent up to now is        0.2 secs

     total energy              =     -15.83509921 Ry
     Harris-Foulkes estimate   =     -15.83509923 Ry
     estimated scf accuracy    <       0.00000004 Ry

     iteration #  6     ecut=    16.00 Ry     beta= 0.70
     Davidson diagonalization with overlap
     ethr =  5.41E-10,  avg # of iterations =  2.7

     total cpu time spent up to now is        0.3 secs

     total energy              =     -15.83509923 Ry
     Harris-Foulkes estimate   =     -15.83509923 Ry
     estimated scf accuracy    <          1.0E-09 Ry

     iteration #  7     ecut=    16.00 Ry     beta= 0.70
     Davidson diagonalization with overlap
     ethr =  1.29E-11,  avg # of iterations =  2.1

     total cpu time spent up to now is        0.3 secs

     End of self-consistent calculation

          k =-0.1250 0.1250 0.1250 (   274 PWs)   bands (ev):

    -5.3600   5.2662   6.5850   6.5850

          k =-0.3750 0.3750-0.1250 (   272 PWs)   bands (ev):

    -4.2394   2.1105   4.4194   6.0767

          k = 0.3750-0.3750 0.6250 (   267 PWs)   bands (ev):

    -2.9479  -0.1950   4.4937   5.2201

          k = 0.1250-0.1250 0.3750 (   280 PWs)   bands (ev):

    -4.7895   3.6078   5.4636   5.5968

          k =-0.1250 0.6250 0.1250 (   269 PWs)   bands (ev):

    -3.6588   1.8911   4.0136   4.5123

          k = 0.6250-0.1250 0.8750 (   265 PWs)   bands (ev):

    -1.8324  -0.2072   2.4698   3.6697

          k = 0.3750 0.1250 0.6250 (   267 PWs)   bands (ev):

    -3.1904   0.8706   3.3310   4.8074

          k =-0.1250-0.8750 0.1250 (   270 PWs)   bands (ev):

    -2.0502  -0.0831   3.1548   4.0033

          k =-0.3750 0.3750 0.3750 (   269 PWs)   bands (ev):

    -3.7497   0.6604   5.7411   5.7411

          k = 0.3750-0.3750 1.1250 (   271 PWs)   bands (ev):

    -2.4117   0.0129   2.5838   4.8649

     highest occupied level (ev):     6.5850

!    total energy              =     -15.83509923 Ry
     Harris-Foulkes estimate   =     -15.83509923 Ry
     estimated scf accuracy    <          8.0E-12 Ry

     The total energy is the sum of the following terms:

     one-electron contribution =       5.25484322 Ry
     hartree contribution      =       1.02687197 Ry
     xc contribution           =      -4.87906068 Ry
     ewald contribution        =     -17.23775375 Ry

     convergence has been achieved in   7 iterations

     Writing output data file pwscf.save/

     init_run     :      0.03s CPU      0.03s WALL (       1 calls)
     electrons    :      0.22s CPU      0.25s WALL (       1 calls)

     Called by init_run:
     wfcinit      :      0.02s CPU      0.02s WALL (       1 calls)
     potinit      :      0.00s CPU      0.00s WALL (       1 calls)
     hinit0       :      0.01s CPU      0.01s WALL (       1 calls)

     Called by electrons:
     c_bands      :      0.17s CPU      0.20s WALL (       8 calls)
     sum_band     :      0.04s CPU      0.04s WALL (       8 calls)
     v_of_rho     :      0.01s CPU      0.01s WALL (       8 calls)
     mix_rho      :      0.00s CPU      0.00s WALL (       8 calls)

     Called by c_bands:
     init_us_2    :      0.01s CPU      0.01s WALL (     170 calls)
     cegterg      :      0.17s CPU      0.19s WALL (      80 calls)

     Called by sum_band:

     Called by *egterg:
     h_psi        :      0.16s CPU      0.19s WALL (     245 calls)
     g_psi        :      0.00s CPU      0.00s WALL (     155 calls)
     cdiaghg      :      0.01s CPU      0.01s WALL (     225 calls)

     Called by h_psi:
     h_psi:pot    :      0.16s CPU      0.19s WALL (     245 calls)
     h_psi:calbec :      0.00s CPU      0.00s WALL (     245 calls)
     vloc_psi     :      0.16s CPU      0.18s WALL (     245 calls)
     add_vuspsi   :      0.00s CPU      0.00s WALL (     245 calls)

     General routines
     calbec       :      0.00s CPU      0.00s WALL (     245 calls)
     fft          :      0.00s CPU      0.00s WALL (      24 calls)
     ffts         :      0.00s CPU      0.00s WALL (       8 calls)
     fftw         :      0.17s CPU      0.20s WALL (    2196 calls)

     Parallel routines
     fft_scatt_xy :      0.02s CPU      0.02s WALL (    2228 calls)
     fft_scatt_yz :      0.03s CPU      0.03s WALL (    2228 calls)

     PWSCF        :      0.26s CPU      0.30s WALL


   This run was terminated on:  17:45:33  13Aug2019            

=------------------------------------------------------------------------------=
   JOB DONE.
=------------------------------------------------------------------------------=
