### Running on host: assam

     Program PWSCF v.6.4.1 starts on 13Aug2019 at 17:45:32 

     This program is part of the open-source Quantum ESPRESSO suite
     for quantum simulation of materials; please cite
         "P. Giannozzi et al., J. Phys.:Condens. Matter 21 395502 (2009);
         "P. Giannozzi et al., J. Phys.:Condens. Matter 29 465901 (2017);
          URL http://www.quantum-espresso.org", 
     in publications or presentations arising from this work. More details at
     http://www.quantum-espresso.org/quote

     Parallel version (MPI), running on     2 processors

     MPI processes distributed on     1 nodes
     R & G space division:  proc/nbgrp/npool/nimage =       2
     Reading input from scf.Si.ecutwfc-12.in

     Current dimensions of program PWSCF are:
     Max number of different atomic species (ntypx) = 10
     Max number of k-points (npk) =  40000
     Max angular momentum in pseudopotentials (lmaxx) =  3

     Subspace diagonalization in iterative solution of the eigenvalue problem:
     a serial algorithm will be used


     Parallelization info
     --------------------
     sticks:   dense  smooth     PW     G-vecs:    dense   smooth      PW
     Min          81      81     30                  705      705     165
     Max          82      82     31                  706      706     166
     Sum         163     163     61                 1411     1411     331



     bravais-lattice index     =            2
     lattice parameter (alat)  =      10.0000  a.u.
     unit-cell volume          =     250.0000 (a.u.)^3
     number of atoms/cell      =            2
     number of atomic types    =            1
     number of electrons       =         8.00
     number of Kohn-Sham states=            4
     kinetic-energy cutoff     =      12.0000  Ry
     charge density cutoff     =      48.0000  Ry
     convergence threshold     =      1.0E-09
     mixing beta               =       0.7000
     number of iterations used =            8  plain     mixing
     Exchange-correlation      =  SLA  PZ   NOGX NOGC ( 1  1  0  0 0 0)

     celldm(1)=  10.000000  celldm(2)=   0.000000  celldm(3)=   0.000000
     celldm(4)=   0.000000  celldm(5)=   0.000000  celldm(6)=   0.000000

     crystal axes: (cart. coord. in units of alat)
               a(1) = (  -0.500000   0.000000   0.500000 )  
               a(2) = (   0.000000   0.500000   0.500000 )  
               a(3) = (  -0.500000   0.500000   0.000000 )  

     reciprocal axes: (cart. coord. in units 2 pi/alat)
               b(1) = ( -1.000000 -1.000000  1.000000 )  
               b(2) = (  1.000000  1.000000  1.000000 )  
               b(3) = ( -1.000000  1.000000 -1.000000 )  


     PseudoPot. # 1 for Si read from file:
     /home/matic/pw/pseudo/Si.pz-vbc.UPF
     MD5 check sum: 6dfa03ddd5817404712e03e4d12deb78
     Pseudo is Norm-conserving, Zval =  4.0
     Generated by new atomic code, or converted to UPF format
     Using radial grid of  431 points,  2 beta functions with: 
                l(1) =   0
                l(2) =   1

     atomic species   valence    mass     pseudopotential
        Si             4.00    28.08600     Si( 1.00)

     48 Sym. Ops., with inversion, found (24 have fractional translation)



   Cartesian axes

     site n.     atom                  positions (alat units)
         1           Si  tau(   1) = (   0.0000000   0.0000000   0.0000000  )
         2           Si  tau(   2) = (  -0.2500000   0.2500000   0.2500000  )

     number of k points=    10
                       cart. coord. in units 2pi/alat
        k(    1) = (  -0.1250000   0.1250000   0.1250000), wk =   0.0625000
        k(    2) = (  -0.3750000   0.3750000  -0.1250000), wk =   0.1875000
        k(    3) = (   0.3750000  -0.3750000   0.6250000), wk =   0.1875000
        k(    4) = (   0.1250000  -0.1250000   0.3750000), wk =   0.1875000
        k(    5) = (  -0.1250000   0.6250000   0.1250000), wk =   0.1875000
        k(    6) = (   0.6250000  -0.1250000   0.8750000), wk =   0.3750000
        k(    7) = (   0.3750000   0.1250000   0.6250000), wk =   0.3750000
        k(    8) = (  -0.1250000  -0.8750000   0.1250000), wk =   0.1875000
        k(    9) = (  -0.3750000   0.3750000   0.3750000), wk =   0.0625000
        k(   10) = (   0.3750000  -0.3750000   1.1250000), wk =   0.1875000

     Dense  grid:     1411 G-vectors     FFT dimensions: (  16,  16,  16)

     Estimated max dynamical RAM per process >       0.63 MB

     Estimated total dynamical RAM >       1.27 MB

     Initial potential from superposition of free atoms

     starting charge    7.99901, renormalised to    8.00000
     Starting wfcs are    8 randomized atomic wfcs

     total cpu time spent up to now is        0.0 secs

     Self-consistent Calculation

     iteration #  1     ecut=    12.00 Ry     beta= 0.70
     Davidson diagonalization with overlap
     ethr =  1.00E-02,  avg # of iterations =  2.0

     Threshold (ethr) on eigenvalues was too large:
     Diagonalizing with lowered threshold

     Davidson diagonalization with overlap
     ethr =  8.15E-04,  avg # of iterations =  1.0

     total cpu time spent up to now is        0.1 secs

     total energy              =     -15.79770161 Ry
     Harris-Foulkes estimate   =     -15.82055133 Ry
     estimated scf accuracy    <       0.06522016 Ry

     iteration #  2     ecut=    12.00 Ry     beta= 0.70
     Davidson diagonalization with overlap
     ethr =  8.15E-04,  avg # of iterations =  1.0

     total cpu time spent up to now is        0.1 secs

     total energy              =     -15.80128474 Ry
     Harris-Foulkes estimate   =     -15.80156863 Ry
     estimated scf accuracy    <       0.00212022 Ry

     iteration #  3     ecut=    12.00 Ry     beta= 0.70
     Davidson diagonalization with overlap
     ethr =  2.65E-05,  avg # of iterations =  2.5

     total cpu time spent up to now is        0.1 secs

     total energy              =     -15.80181039 Ry
     Harris-Foulkes estimate   =     -15.80184200 Ry
     estimated scf accuracy    <       0.00007507 Ry

     iteration #  4     ecut=    12.00 Ry     beta= 0.70
     Davidson diagonalization with overlap
     ethr =  9.38E-07,  avg # of iterations =  2.1

     total cpu time spent up to now is        0.1 secs

     total energy              =     -15.80182475 Ry
     Harris-Foulkes estimate   =     -15.80182772 Ry
     estimated scf accuracy    <       0.00000705 Ry

     iteration #  5     ecut=    12.00 Ry     beta= 0.70
     Davidson diagonalization with overlap
     ethr =  8.81E-08,  avg # of iterations =  2.1

     total cpu time spent up to now is        0.1 secs

     total energy              =     -15.80182567 Ry
     Harris-Foulkes estimate   =     -15.80182568 Ry
     estimated scf accuracy    <       0.00000003 Ry

     iteration #  6     ecut=    12.00 Ry     beta= 0.70
     Davidson diagonalization with overlap
     ethr =  3.73E-10,  avg # of iterations =  2.7

     total cpu time spent up to now is        0.1 secs

     End of self-consistent calculation

          k =-0.1250 0.1250 0.1250 (   172 PWs)   bands (ev):

    -5.2802   5.3151   6.6209   6.6209

          k =-0.3750 0.3750-0.1250 (   173 PWs)   bands (ev):

    -4.1568   2.1689   4.4461   6.1013

          k = 0.3750-0.3750 0.6250 (   172 PWs)   bands (ev):

    -2.8409  -0.1579   4.5205   5.2354

          k = 0.1250-0.1250 0.3750 (   169 PWs)   bands (ev):

    -4.7022   3.6735   5.4846   5.6369

          k =-0.1250 0.6250 0.1250 (   178 PWs)   bands (ev):

    -3.5846   1.9620   4.0289   4.5211

          k = 0.6250-0.1250 0.8750 (   179 PWs)   bands (ev):

    -1.7496  -0.1377   2.4769   3.6767

          k = 0.3750 0.1250 0.6250 (   175 PWs)   bands (ev):

    -3.1011   0.9251   3.3540   4.8233

          k =-0.1250-0.8750 0.1250 (   178 PWs)   bands (ev):

    -1.9653  -0.0071   3.1615   4.0079

          k =-0.3750 0.3750 0.3750 (   174 PWs)   bands (ev):

    -3.6563   0.7061   5.7584   5.7584

          k = 0.3750-0.3750 1.1250 (   178 PWs)   bands (ev):

    -2.3201   0.0622   2.6018   4.8774

     highest occupied level (ev):     6.6209

!    total energy              =     -15.80182569 Ry
     Harris-Foulkes estimate   =     -15.80182569 Ry
     estimated scf accuracy    <          8.4E-10 Ry

     The total energy is the sum of the following terms:

     one-electron contribution =       5.28927456 Ry
     hartree contribution      =       1.01761534 Ry
     xc contribution           =      -4.87096184 Ry
     ewald contribution        =     -17.23775375 Ry

     convergence has been achieved in   6 iterations

     Writing output data file pwscf.save/

     init_run     :      0.01s CPU      0.02s WALL (       1 calls)
     electrons    :      0.09s CPU      0.11s WALL (       1 calls)

     Called by init_run:
     wfcinit      :      0.01s CPU      0.01s WALL (       1 calls)
     potinit      :      0.00s CPU      0.00s WALL (       1 calls)
     hinit0       :      0.01s CPU      0.01s WALL (       1 calls)

     Called by electrons:
     c_bands      :      0.07s CPU      0.09s WALL (       7 calls)
     sum_band     :      0.01s CPU      0.02s WALL (       7 calls)
     v_of_rho     :      0.00s CPU      0.00s WALL (       7 calls)
     mix_rho      :      0.00s CPU      0.00s WALL (       7 calls)

     Called by c_bands:
     init_us_2    :      0.00s CPU      0.00s WALL (     150 calls)
     cegterg      :      0.06s CPU      0.08s WALL (      70 calls)

     Called by sum_band:

     Called by *egterg:
     h_psi        :      0.05s CPU      0.07s WALL (     214 calls)
     g_psi        :      0.00s CPU      0.00s WALL (     134 calls)
     cdiaghg      :      0.01s CPU      0.01s WALL (     194 calls)

     Called by h_psi:
     h_psi:pot    :      0.05s CPU      0.07s WALL (     214 calls)
     h_psi:calbec :      0.00s CPU      0.00s WALL (     214 calls)
     vloc_psi     :      0.05s CPU      0.06s WALL (     214 calls)
     add_vuspsi   :      0.00s CPU      0.00s WALL (     214 calls)

     General routines
     calbec       :      0.00s CPU      0.00s WALL (     214 calls)
     fft          :      0.00s CPU      0.00s WALL (      21 calls)
     ffts         :      0.00s CPU      0.00s WALL (       7 calls)
     fftw         :      0.05s CPU      0.07s WALL (    1948 calls)

     Parallel routines
     fft_scatt_xy :      0.01s CPU      0.01s WALL (    1976 calls)
     fft_scatt_yz :      0.01s CPU      0.01s WALL (    1976 calls)

     PWSCF        :      0.12s CPU      0.15s WALL


   This run was terminated on:  17:45:32  13Aug2019            

=------------------------------------------------------------------------------=
   JOB DONE.
=------------------------------------------------------------------------------=
