### Running on host: sh02-ln01.stanford.edu

     Program PWSCF v.6.5 starts on 31May2020 at  2: 1: 5 

     This program is part of the open-source Quantum ESPRESSO suite
     for quantum simulation of materials; please cite
         "P. Giannozzi et al., J. Phys.:Condens. Matter 21 395502 (2009);
         "P. Giannozzi et al., J. Phys.:Condens. Matter 29 465901 (2017);
          URL http://www.quantum-espresso.org", 
     in publications or presentations arising from this work. More details at
     http://www.quantum-espresso.org/quote

     Parallel version (MPI), running on     1 processors

     MPI processes distributed on     1 nodes
     Reading input from pw.Si.scf.alat-10.5.in

     Current dimensions of program PWSCF are:
     Max number of different atomic species (ntypx) = 10
     Max number of k-points (npk) =  40000
     Max angular momentum in pseudopotentials (lmaxx) =  3

     Subspace diagonalization in iterative solution of the eigenvalue problem:
     a serial algorithm will be used

 
     G-vector sticks info
     --------------------
     sticks:   dense  smooth     PW     G-vecs:    dense   smooth      PW
     Sum         187     187     61                 1639     1639     339
 


     bravais-lattice index     =            2
     lattice parameter (alat)  =      10.5000  a.u.
     unit-cell volume          =     289.4062 (a.u.)^3
     number of atoms/cell      =            2
     number of atomic types    =            1
     number of electrons       =         8.00
     number of Kohn-Sham states=            4
     kinetic-energy cutoff     =      12.0000  Ry
     charge density cutoff     =      48.0000  Ry
     convergence threshold     =      1.0E-06
     mixing beta               =       0.7000
     number of iterations used =            8  plain     mixing
     Exchange-correlation= SLA PZ NOGX NOGC
                           (   1   1   0   0   0   0   0)

     celldm(1)=  10.500000  celldm(2)=   0.000000  celldm(3)=   0.000000
     celldm(4)=   0.000000  celldm(5)=   0.000000  celldm(6)=   0.000000

     crystal axes: (cart. coord. in units of alat)
               a(1) = (  -0.500000   0.000000   0.500000 )  
               a(2) = (   0.000000   0.500000   0.500000 )  
               a(3) = (  -0.500000   0.500000   0.000000 )  

     reciprocal axes: (cart. coord. in units 2 pi/alat)
               b(1) = ( -1.000000 -1.000000  1.000000 )  
               b(2) = (  1.000000  1.000000  1.000000 )  
               b(3) = ( -1.000000  1.000000 -1.000000 )  


     PseudoPot. # 1 for Si read from file:
     /home/groups/saraswat/qe-6.5/pseudo/Si.pz-vbc.UPF
     MD5 check sum: 9f25e6ff280f3123e9b3a84715b2e9c9
     Pseudo is Norm-conserving, Zval =  4.0
     Generated by new atomic code, or converted to UPF format
     Using radial grid of  431 points,  2 beta functions with: 
                l(1) =   0
                l(2) =   1

     atomic species   valence    mass     pseudopotential
        Si             4.00    28.08600     Si( 1.00)

     48 Sym. Ops., with inversion, found (24 have fractional translation)



   Cartesian axes

     site n.     atom                  positions (alat units)
         1           Si  tau(   1) = (   0.0000000   0.0000000   0.0000000  )
         2           Si  tau(   2) = (   0.2500000   0.2500000   0.2500000  )

     number of k points=    10
                       cart. coord. in units 2pi/alat
        k(    1) = (  -0.1250000   0.1250000   0.1250000), wk =   0.0625000
        k(    2) = (  -0.3750000   0.3750000  -0.1250000), wk =   0.1875000
        k(    3) = (   0.3750000  -0.3750000   0.6250000), wk =   0.1875000
        k(    4) = (   0.1250000  -0.1250000   0.3750000), wk =   0.1875000
        k(    5) = (  -0.1250000   0.6250000   0.1250000), wk =   0.1875000
        k(    6) = (   0.6250000  -0.1250000   0.8750000), wk =   0.3750000
        k(    7) = (   0.3750000   0.1250000   0.6250000), wk =   0.3750000
        k(    8) = (  -0.1250000  -0.8750000   0.1250000), wk =   0.1875000
        k(    9) = (  -0.3750000   0.3750000   0.3750000), wk =   0.0625000
        k(   10) = (   0.3750000  -0.3750000   1.1250000), wk =   0.1875000

     Dense  grid:     1639 G-vectors     FFT dimensions: (  20,  20,  20)

     Estimated max dynamical RAM per process >       1.58 MB

     Initial potential from superposition of free atoms

     starting charge    7.99901, renormalised to    8.00000
     Starting wfcs are    8 randomized atomic wfcs

     total cpu time spent up to now is        0.1 secs

     Self-consistent Calculation

     iteration #  1     ecut=    12.00 Ry     beta= 0.70
     Davidson diagonalization with overlap
     ethr =  1.00E-02,  avg # of iterations =  2.0

     Threshold (ethr) on eigenvalues was too large:
     Diagonalizing with lowered threshold

     Davidson diagonalization with overlap
     ethr =  6.36E-04,  avg # of iterations =  1.0

     total cpu time spent up to now is        0.2 secs

     total energy              =     -15.80202738 Ry
     Harris-Foulkes estimate   =     -15.81733144 Ry
     estimated scf accuracy    <       0.05102010 Ry

     iteration #  2     ecut=    12.00 Ry     beta= 0.70
     Davidson diagonalization with overlap
     ethr =  6.38E-04,  avg # of iterations =  1.0

     total cpu time spent up to now is        0.3 secs

     total energy              =     -15.80411157 Ry
     Harris-Foulkes estimate   =     -15.80440738 Ry
     estimated scf accuracy    <       0.00211037 Ry

     iteration #  3     ecut=    12.00 Ry     beta= 0.70
     Davidson diagonalization with overlap
     ethr =  2.64E-05,  avg # of iterations =  2.5

     total cpu time spent up to now is        0.3 secs

     total energy              =     -15.80445136 Ry
     Harris-Foulkes estimate   =     -15.80447252 Ry
     estimated scf accuracy    <       0.00005187 Ry

     iteration #  4     ecut=    12.00 Ry     beta= 0.70
     Davidson diagonalization with overlap
     ethr =  6.48E-07,  avg # of iterations =  2.3

     total cpu time spent up to now is        0.3 secs

     total energy              =     -15.80446491 Ry
     Harris-Foulkes estimate   =     -15.80446650 Ry
     estimated scf accuracy    <       0.00000378 Ry

     iteration #  5     ecut=    12.00 Ry     beta= 0.70
     Davidson diagonalization with overlap
     ethr =  4.73E-08,  avg # of iterations =  2.1

     total cpu time spent up to now is        0.4 secs

     End of self-consistent calculation

          k =-0.1250 0.1250 0.1250 (   190 PWs)   bands (ev):

    -5.8217   3.8423   5.1305   5.1305

          k =-0.3750 0.3750-0.1250 (   200 PWs)   bands (ev):

    -4.8404   0.9347   3.2003   4.6505

          k = 0.3750-0.3750 0.6250 (   204 PWs)   bands (ev):

    -3.7508  -1.0644   3.2042   3.9045

          k = 0.1250-0.1250 0.3750 (   196 PWs)   bands (ev):

    -5.3154   2.2611   4.1537   4.2030

          k =-0.1250 0.6250 0.1250 (   205 PWs)   bands (ev):

    -4.3403   0.5943   2.8638   3.3001

          k = 0.6250-0.1250 0.8750 (   206 PWs)   bands (ev):

    -2.7717  -1.2924   1.5643   2.6023

          k = 0.3750 0.1250 0.6250 (   202 PWs)   bands (ev):

    -3.9365  -0.2350   2.2443   3.5684

          k =-0.1250-0.8750 0.1250 (   206 PWs)   bands (ev):

    -2.9330  -1.1983   2.1500   2.8440

          k =-0.3750 0.3750 0.3750 (   204 PWs)   bands (ev):

    -4.4358  -0.3066   4.3495   4.3495

          k = 0.3750-0.3750 1.1250 (   206 PWs)   bands (ev):

    -3.2888  -0.9880   1.6165   3.5990

     highest occupied level (ev):     5.1305

!    total energy              =     -15.80446556 Ry
     Harris-Foulkes estimate   =     -15.80446558 Ry
     estimated scf accuracy    <       0.00000006 Ry

     The total energy is the sum of the following terms:

     one-electron contribution =       4.18539855 Ry
     hartree contribution      =       1.14059594 Ry
     xc contribution           =      -4.71355170 Ry
     ewald contribution        =     -16.41690833 Ry

     convergence has been achieved in   5 iterations

     Writing output data file /scratch/groups/saraswat/aravind2/qe/silicon.save/
 
     init_run     :      0.05s CPU      0.07s WALL (       1 calls)
     electrons    :      0.22s CPU      0.26s WALL (       1 calls)

     Called by init_run:
     wfcinit      :      0.03s CPU      0.04s WALL (       1 calls)
     potinit      :      0.00s CPU      0.00s WALL (       1 calls)
     hinit0       :      0.02s CPU      0.02s WALL (       1 calls)

     Called by electrons:
     c_bands      :      0.18s CPU      0.19s WALL (       6 calls)
     sum_band     :      0.04s CPU      0.04s WALL (       6 calls)
     v_of_rho     :      0.00s CPU      0.00s WALL (       6 calls)
     mix_rho      :      0.00s CPU      0.00s WALL (       6 calls)

     Called by c_bands:
     init_us_2    :      0.00s CPU      0.00s WALL (     130 calls)
     cegterg      :      0.17s CPU      0.18s WALL (      60 calls)

     Called by sum_band:

     Called by *egterg:
     h_psi        :      0.19s CPU      0.19s WALL (     179 calls)
     g_psi        :      0.00s CPU      0.00s WALL (     109 calls)
     cdiaghg      :      0.01s CPU      0.01s WALL (     159 calls)

     Called by h_psi:
     h_psi:calbec :      0.00s CPU      0.00s WALL (     179 calls)
     vloc_psi     :      0.18s CPU      0.19s WALL (     179 calls)
     add_vuspsi   :      0.00s CPU      0.00s WALL (     179 calls)

     General routines
     calbec       :      0.00s CPU      0.00s WALL (     179 calls)
     fft          :      0.01s CPU      0.01s WALL (      18 calls)
     ffts         :      0.00s CPU      0.00s WALL (       6 calls)
     fftw         :      0.20s CPU      0.20s WALL (    1630 calls)
 
     Parallel routines
 
     PWSCF        :      0.35s CPU      0.69s WALL

 
   This run was terminated on:   2: 1: 5  31May2020            

=------------------------------------------------------------------------------=
   JOB DONE.
=------------------------------------------------------------------------------=
