### Running on host: sh02-ln01.stanford.edu

     Program PWSCF v.6.5 starts on 31May2020 at  2: 1: 0 

     This program is part of the open-source Quantum ESPRESSO suite
     for quantum simulation of materials; please cite
         "P. Giannozzi et al., J. Phys.:Condens. Matter 21 395502 (2009);
         "P. Giannozzi et al., J. Phys.:Condens. Matter 29 465901 (2017);
          URL http://www.quantum-espresso.org", 
     in publications or presentations arising from this work. More details at
     http://www.quantum-espresso.org/quote

     Parallel version (MPI), running on     1 processors

     MPI processes distributed on     1 nodes
     Reading input from pw.Si.scf.alat-9.9.in

     Current dimensions of program PWSCF are:
     Max number of different atomic species (ntypx) = 10
     Max number of k-points (npk) =  40000
     Max angular momentum in pseudopotentials (lmaxx) =  3

     Subspace diagonalization in iterative solution of the eigenvalue problem:
     a serial algorithm will be used

 
     G-vector sticks info
     --------------------
     sticks:   dense  smooth     PW     G-vecs:    dense   smooth      PW
     Sum         163     163     61                 1363     1363     331
 


     bravais-lattice index     =            2
     lattice parameter (alat)  =       9.9000  a.u.
     unit-cell volume          =     242.5748 (a.u.)^3
     number of atoms/cell      =            2
     number of atomic types    =            1
     number of electrons       =         8.00
     number of Kohn-Sham states=            4
     kinetic-energy cutoff     =      12.0000  Ry
     charge density cutoff     =      48.0000  Ry
     convergence threshold     =      1.0E-06
     mixing beta               =       0.7000
     number of iterations used =            8  plain     mixing
     Exchange-correlation= SLA PZ NOGX NOGC
                           (   1   1   0   0   0   0   0)

     celldm(1)=   9.900000  celldm(2)=   0.000000  celldm(3)=   0.000000
     celldm(4)=   0.000000  celldm(5)=   0.000000  celldm(6)=   0.000000

     crystal axes: (cart. coord. in units of alat)
               a(1) = (  -0.500000   0.000000   0.500000 )  
               a(2) = (   0.000000   0.500000   0.500000 )  
               a(3) = (  -0.500000   0.500000   0.000000 )  

     reciprocal axes: (cart. coord. in units 2 pi/alat)
               b(1) = ( -1.000000 -1.000000  1.000000 )  
               b(2) = (  1.000000  1.000000  1.000000 )  
               b(3) = ( -1.000000  1.000000 -1.000000 )  


     PseudoPot. # 1 for Si read from file:
     /home/groups/saraswat/qe-6.5/pseudo/Si.pz-vbc.UPF
     MD5 check sum: 9f25e6ff280f3123e9b3a84715b2e9c9
     Pseudo is Norm-conserving, Zval =  4.0
     Generated by new atomic code, or converted to UPF format
     Using radial grid of  431 points,  2 beta functions with: 
                l(1) =   0
                l(2) =   1

     atomic species   valence    mass     pseudopotential
        Si             4.00    28.08600     Si( 1.00)

     48 Sym. Ops., with inversion, found (24 have fractional translation)



   Cartesian axes

     site n.     atom                  positions (alat units)
         1           Si  tau(   1) = (   0.0000000   0.0000000   0.0000000  )
         2           Si  tau(   2) = (   0.2500000   0.2500000   0.2500000  )

     number of k points=    10
                       cart. coord. in units 2pi/alat
        k(    1) = (  -0.1250000   0.1250000   0.1250000), wk =   0.0625000
        k(    2) = (  -0.3750000   0.3750000  -0.1250000), wk =   0.1875000
        k(    3) = (   0.3750000  -0.3750000   0.6250000), wk =   0.1875000
        k(    4) = (   0.1250000  -0.1250000   0.3750000), wk =   0.1875000
        k(    5) = (  -0.1250000   0.6250000   0.1250000), wk =   0.1875000
        k(    6) = (   0.6250000  -0.1250000   0.8750000), wk =   0.3750000
        k(    7) = (   0.3750000   0.1250000   0.6250000), wk =   0.3750000
        k(    8) = (  -0.1250000  -0.8750000   0.1250000), wk =   0.1875000
        k(    9) = (  -0.3750000   0.3750000   0.3750000), wk =   0.0625000
        k(   10) = (   0.3750000  -0.3750000   1.1250000), wk =   0.1875000

     Dense  grid:     1363 G-vectors     FFT dimensions: (  16,  16,  16)

     Estimated max dynamical RAM per process >       1.15 MB

     Initial potential from superposition of free atoms

     starting charge    7.99901, renormalised to    8.00000
     Starting wfcs are    8 randomized atomic wfcs

     total cpu time spent up to now is        0.1 secs

     Self-consistent Calculation

     iteration #  1     ecut=    12.00 Ry     beta= 0.70
     Davidson diagonalization with overlap
     ethr =  1.00E-02,  avg # of iterations =  2.0

     Threshold (ethr) on eigenvalues was too large:
     Diagonalizing with lowered threshold

     Davidson diagonalization with overlap
     ethr =  8.54E-04,  avg # of iterations =  1.0

     total cpu time spent up to now is        0.2 secs

     total energy              =     -15.79163479 Ry
     Harris-Foulkes estimate   =     -15.81621914 Ry
     estimated scf accuracy    <       0.06840252 Ry

     iteration #  2     ecut=    12.00 Ry     beta= 0.70
     Davidson diagonalization with overlap
     ethr =  8.55E-04,  avg # of iterations =  1.0

     total cpu time spent up to now is        0.2 secs

     total energy              =     -15.79555422 Ry
     Harris-Foulkes estimate   =     -15.79583681 Ry
     estimated scf accuracy    <       0.00212642 Ry

     iteration #  3     ecut=    12.00 Ry     beta= 0.70
     Davidson diagonalization with overlap
     ethr =  2.66E-05,  avg # of iterations =  2.6

     total cpu time spent up to now is        0.2 secs

     total energy              =     -15.79612091 Ry
     Harris-Foulkes estimate   =     -15.79615491 Ry
     estimated scf accuracy    <       0.00007998 Ry

     iteration #  4     ecut=    12.00 Ry     beta= 0.70
     Davidson diagonalization with overlap
     ethr =  1.00E-06,  avg # of iterations =  2.0

     total cpu time spent up to now is        0.2 secs

     total energy              =     -15.79613530 Ry
     Harris-Foulkes estimate   =     -15.79613857 Ry
     estimated scf accuracy    <       0.00000779 Ry

     iteration #  5     ecut=    12.00 Ry     beta= 0.70
     Davidson diagonalization with overlap
     ethr =  9.74E-08,  avg # of iterations =  2.1

     total cpu time spent up to now is        0.2 secs

     End of self-consistent calculation

          k =-0.1250 0.1250 0.1250 (   169 PWs)   bands (ev):

    -5.1566   5.6329   6.9534   6.9534

          k =-0.3750 0.3750-0.1250 (   165 PWs)   bands (ev):

    -3.9968   2.4375   4.7286   6.4276

          k = 0.3750-0.3750 0.6250 (   170 PWs)   bands (ev):

    -2.6504   0.0385   4.8154   5.5332

          k = 0.1250-0.1250 0.3750 (   166 PWs)   bands (ev):

    -4.5637   3.9720   5.7821   5.9596

          k =-0.1250 0.6250 0.1250 (   170 PWs)   bands (ev):

    -3.4152   2.2714   4.2936   4.7940

          k = 0.6250-0.1250 0.8750 (   173 PWs)   bands (ev):

    -1.5141   0.1110   2.6835   3.9164

          k = 0.3750 0.1250 0.6250 (   169 PWs)   bands (ev):

    -2.9177   1.1786   3.6071   5.1050

          k =-0.1250-0.8750 0.1250 (   172 PWs)   bands (ev):

    -1.7527   0.2550   3.3879   4.2688

          k =-0.3750 0.3750 0.3750 (   168 PWs)   bands (ev):

    -3.4857   0.9323   6.0753   6.0753

          k = 0.3750-0.3750 1.1250 (   174 PWs)   bands (ev):

    -2.1108   0.2920   2.8252   5.1633

     highest occupied level (ev):     6.9534

!    total energy              =     -15.79613634 Ry
     Harris-Foulkes estimate   =     -15.79613635 Ry
     estimated scf accuracy    <       0.00000003 Ry

     The total energy is the sum of the following terms:

     one-electron contribution =       5.52750579 Ry
     hartree contribution      =       0.99307700 Ry
     xc contribution           =      -4.90484666 Ry
     ewald contribution        =     -17.41187248 Ry

     convergence has been achieved in   5 iterations

     Writing output data file /scratch/groups/saraswat/aravind2/qe/silicon.save/
 
     init_run     :      0.03s CPU      0.04s WALL (       1 calls)
     electrons    :      0.10s CPU      0.17s WALL (       1 calls)

     Called by init_run:
     wfcinit      :      0.01s CPU      0.02s WALL (       1 calls)
     potinit      :      0.00s CPU      0.00s WALL (       1 calls)
     hinit0       :      0.01s CPU      0.01s WALL (       1 calls)

     Called by electrons:
     c_bands      :      0.08s CPU      0.09s WALL (       6 calls)
     sum_band     :      0.01s CPU      0.02s WALL (       6 calls)
     v_of_rho     :      0.00s CPU      0.00s WALL (       6 calls)
     mix_rho      :      0.00s CPU      0.00s WALL (       6 calls)

     Called by c_bands:
     init_us_2    :      0.00s CPU      0.00s WALL (     130 calls)
     cegterg      :      0.08s CPU      0.09s WALL (      60 calls)

     Called by sum_band:

     Called by *egterg:
     h_psi        :      0.07s CPU      0.08s WALL (     177 calls)
     g_psi        :      0.00s CPU      0.00s WALL (     107 calls)
     cdiaghg      :      0.01s CPU      0.01s WALL (     157 calls)

     Called by h_psi:
     h_psi:calbec :      0.00s CPU      0.00s WALL (     177 calls)
     vloc_psi     :      0.07s CPU      0.07s WALL (     177 calls)
     add_vuspsi   :      0.00s CPU      0.00s WALL (     177 calls)

     General routines
     calbec       :      0.00s CPU      0.00s WALL (     177 calls)
     fft          :      0.00s CPU      0.00s WALL (      18 calls)
     ffts         :      0.00s CPU      0.00s WALL (       6 calls)
     fftw         :      0.07s CPU      0.08s WALL (    1644 calls)
 
     Parallel routines
 
     PWSCF        :      0.20s CPU      0.55s WALL

 
   This run was terminated on:   2: 1: 0  31May2020            

=------------------------------------------------------------------------------=
   JOB DONE.
=------------------------------------------------------------------------------=
