### Running on host: sh02-ln01.stanford.edu

     Program PWSCF v.6.5 starts on 31May2020 at  2: 1: 4 

     This program is part of the open-source Quantum ESPRESSO suite
     for quantum simulation of materials; please cite
         "P. Giannozzi et al., J. Phys.:Condens. Matter 21 395502 (2009);
         "P. Giannozzi et al., J. Phys.:Condens. Matter 29 465901 (2017);
          URL http://www.quantum-espresso.org", 
     in publications or presentations arising from this work. More details at
     http://www.quantum-espresso.org/quote

     Parallel version (MPI), running on     1 processors

     MPI processes distributed on     1 nodes
     Reading input from pw.Si.scf.alat-10.4.in

     Current dimensions of program PWSCF are:
     Max number of different atomic species (ntypx) = 10
     Max number of k-points (npk) =  40000
     Max angular momentum in pseudopotentials (lmaxx) =  3

     Subspace diagonalization in iterative solution of the eigenvalue problem:
     a serial algorithm will be used

 
     G-vector sticks info
     --------------------
     sticks:   dense  smooth     PW     G-vecs:    dense   smooth      PW
     Sum         187     187     61                 1591     1591     339
 


     bravais-lattice index     =            2
     lattice parameter (alat)  =      10.4000  a.u.
     unit-cell volume          =     281.2160 (a.u.)^3
     number of atoms/cell      =            2
     number of atomic types    =            1
     number of electrons       =         8.00
     number of Kohn-Sham states=            4
     kinetic-energy cutoff     =      12.0000  Ry
     charge density cutoff     =      48.0000  Ry
     convergence threshold     =      1.0E-06
     mixing beta               =       0.7000
     number of iterations used =            8  plain     mixing
     Exchange-correlation= SLA PZ NOGX NOGC
                           (   1   1   0   0   0   0   0)

     celldm(1)=  10.400000  celldm(2)=   0.000000  celldm(3)=   0.000000
     celldm(4)=   0.000000  celldm(5)=   0.000000  celldm(6)=   0.000000

     crystal axes: (cart. coord. in units of alat)
               a(1) = (  -0.500000   0.000000   0.500000 )  
               a(2) = (   0.000000   0.500000   0.500000 )  
               a(3) = (  -0.500000   0.500000   0.000000 )  

     reciprocal axes: (cart. coord. in units 2 pi/alat)
               b(1) = ( -1.000000 -1.000000  1.000000 )  
               b(2) = (  1.000000  1.000000  1.000000 )  
               b(3) = ( -1.000000  1.000000 -1.000000 )  


     PseudoPot. # 1 for Si read from file:
     /home/groups/saraswat/qe-6.5/pseudo/Si.pz-vbc.UPF
     MD5 check sum: 9f25e6ff280f3123e9b3a84715b2e9c9
     Pseudo is Norm-conserving, Zval =  4.0
     Generated by new atomic code, or converted to UPF format
     Using radial grid of  431 points,  2 beta functions with: 
                l(1) =   0
                l(2) =   1

     atomic species   valence    mass     pseudopotential
        Si             4.00    28.08600     Si( 1.00)

     48 Sym. Ops., with inversion, found (24 have fractional translation)



   Cartesian axes

     site n.     atom                  positions (alat units)
         1           Si  tau(   1) = (   0.0000000   0.0000000   0.0000000  )
         2           Si  tau(   2) = (   0.2500000   0.2500000   0.2500000  )

     number of k points=    10
                       cart. coord. in units 2pi/alat
        k(    1) = (  -0.1250000   0.1250000   0.1250000), wk =   0.0625000
        k(    2) = (  -0.3750000   0.3750000  -0.1250000), wk =   0.1875000
        k(    3) = (   0.3750000  -0.3750000   0.6250000), wk =   0.1875000
        k(    4) = (   0.1250000  -0.1250000   0.3750000), wk =   0.1875000
        k(    5) = (  -0.1250000   0.6250000   0.1250000), wk =   0.1875000
        k(    6) = (   0.6250000  -0.1250000   0.8750000), wk =   0.3750000
        k(    7) = (   0.3750000   0.1250000   0.6250000), wk =   0.3750000
        k(    8) = (  -0.1250000  -0.8750000   0.1250000), wk =   0.1875000
        k(    9) = (  -0.3750000   0.3750000   0.3750000), wk =   0.0625000
        k(   10) = (   0.3750000  -0.3750000   1.1250000), wk =   0.1875000

     Dense  grid:     1591 G-vectors     FFT dimensions: (  20,  20,  20)

     Estimated max dynamical RAM per process >       1.55 MB

     Initial potential from superposition of free atoms

     starting charge    7.99901, renormalised to    8.00000
     Starting wfcs are    8 randomized atomic wfcs

     total cpu time spent up to now is        0.1 secs

     Self-consistent Calculation

     iteration #  1     ecut=    12.00 Ry     beta= 0.70
     Davidson diagonalization with overlap
     ethr =  1.00E-02,  avg # of iterations =  2.0

     Threshold (ethr) on eigenvalues was too large:
     Diagonalizing with lowered threshold

     Davidson diagonalization with overlap
     ethr =  6.70E-04,  avg # of iterations =  1.0

     total cpu time spent up to now is        0.2 secs

     total energy              =     -15.80437076 Ry
     Harris-Foulkes estimate   =     -15.82106077 Ry
     estimated scf accuracy    <       0.05371775 Ry

     iteration #  2     ecut=    12.00 Ry     beta= 0.70
     Davidson diagonalization with overlap
     ethr =  6.71E-04,  avg # of iterations =  1.0

     total cpu time spent up to now is        0.2 secs

     total energy              =     -15.80674015 Ry
     Harris-Foulkes estimate   =     -15.80703039 Ry
     estimated scf accuracy    <       0.00209975 Ry

     iteration #  3     ecut=    12.00 Ry     beta= 0.70
     Davidson diagonalization with overlap
     ethr =  2.62E-05,  avg # of iterations =  2.5

     total cpu time spent up to now is        0.3 secs

     total energy              =     -15.80711141 Ry
     Harris-Foulkes estimate   =     -15.80713426 Ry
     estimated scf accuracy    <       0.00005617 Ry

     iteration #  4     ecut=    12.00 Ry     beta= 0.70
     Davidson diagonalization with overlap
     ethr =  7.02E-07,  avg # of iterations =  2.3

     total cpu time spent up to now is        0.3 secs

     total energy              =     -15.80712486 Ry
     Harris-Foulkes estimate   =     -15.80712670 Ry
     estimated scf accuracy    <       0.00000435 Ry

     iteration #  5     ecut=    12.00 Ry     beta= 0.70
     Davidson diagonalization with overlap
     ethr =  5.44E-08,  avg # of iterations =  2.1

     total cpu time spent up to now is        0.4 secs

     End of self-consistent calculation

          k =-0.1250 0.1250 0.1250 (   184 PWs)   bands (ev):

    -5.7194   4.1228   5.4094   5.4094

          k =-0.3750 0.3750-0.1250 (   198 PWs)   bands (ev):

    -4.7174   1.1629   3.4305   4.9197

          k = 0.3750-0.3750 0.6250 (   196 PWs)   bands (ev):

    -3.5824  -0.8856   3.4507   4.1509

          k = 0.1250-0.1250 0.3750 (   196 PWs)   bands (ev):

    -5.2083   2.5228   4.4007   4.4653

          k =-0.1250 0.6250 0.1250 (   198 PWs)   bands (ev):

    -4.1975   0.8522   3.0827   3.5259

          k = 0.6250-0.1250 0.8750 (   199 PWs)   bands (ev):

    -2.5769  -1.0761   1.7339   2.8022

          k = 0.3750 0.1250 0.6250 (   199 PWs)   bands (ev):

    -3.7844  -0.0179   2.4469   3.8011

          k =-0.1250-0.8750 0.1250 (   201 PWs)   bands (ev):

    -2.7586  -0.9732   2.3372   3.0605

          k =-0.3750 0.3750 0.3750 (   198 PWs)   bands (ev):

    -4.2878  -0.1117   4.6120   4.6120

          k = 0.3750-0.3750 1.1250 (   198 PWs)   bands (ev):

    -3.1063  -0.7844   1.7966   3.8371

     highest occupied level (ev):     5.4094

!    total energy              =     -15.80712554 Ry
     Harris-Foulkes estimate   =     -15.80712556 Ry
     estimated scf accuracy    <       0.00000005 Ry

     The total energy is the sum of the following terms:

     one-electron contribution =       4.39516972 Ry
     hartree contribution      =       1.11599408 Ry
     xc contribution           =      -4.74352612 Ry
     ewald contribution        =     -16.57476322 Ry

     convergence has been achieved in   5 iterations

     Writing output data file /scratch/groups/saraswat/aravind2/qe/silicon.save/
 
     init_run     :      0.05s CPU      0.07s WALL (       1 calls)
     electrons    :      0.22s CPU      0.26s WALL (       1 calls)

     Called by init_run:
     wfcinit      :      0.03s CPU      0.03s WALL (       1 calls)
     potinit      :      0.00s CPU      0.00s WALL (       1 calls)
     hinit0       :      0.01s CPU      0.02s WALL (       1 calls)

     Called by electrons:
     c_bands      :      0.18s CPU      0.18s WALL (       6 calls)
     sum_band     :      0.04s CPU      0.04s WALL (       6 calls)
     v_of_rho     :      0.00s CPU      0.00s WALL (       6 calls)
     mix_rho      :      0.00s CPU      0.00s WALL (       6 calls)

     Called by c_bands:
     init_us_2    :      0.00s CPU      0.00s WALL (     130 calls)
     cegterg      :      0.18s CPU      0.18s WALL (      60 calls)

     Called by sum_band:

     Called by *egterg:
     h_psi        :      0.19s CPU      0.19s WALL (     179 calls)
     g_psi        :      0.00s CPU      0.00s WALL (     109 calls)
     cdiaghg      :      0.01s CPU      0.01s WALL (     159 calls)

     Called by h_psi:
     h_psi:calbec :      0.00s CPU      0.00s WALL (     179 calls)
     vloc_psi     :      0.18s CPU      0.19s WALL (     179 calls)
     add_vuspsi   :      0.00s CPU      0.00s WALL (     179 calls)

     General routines
     calbec       :      0.00s CPU      0.00s WALL (     179 calls)
     fft          :      0.00s CPU      0.01s WALL (      18 calls)
     ffts         :      0.00s CPU      0.00s WALL (       6 calls)
     fftw         :      0.20s CPU      0.20s WALL (    1640 calls)
 
     Parallel routines
 
     PWSCF        :      0.34s CPU      0.67s WALL

 
   This run was terminated on:   2: 1: 5  31May2020            

=------------------------------------------------------------------------------=
   JOB DONE.
=------------------------------------------------------------------------------=
