### Running on host: sh02-ln01.stanford.edu

     Program PWSCF v.6.5 starts on 31May2020 at  2: 1: 3 

     This program is part of the open-source Quantum ESPRESSO suite
     for quantum simulation of materials; please cite
         "P. Giannozzi et al., J. Phys.:Condens. Matter 21 395502 (2009);
         "P. Giannozzi et al., J. Phys.:Condens. Matter 29 465901 (2017);
          URL http://www.quantum-espresso.org", 
     in publications or presentations arising from this work. More details at
     http://www.quantum-espresso.org/quote

     Parallel version (MPI), running on     1 processors

     MPI processes distributed on     1 nodes
     Reading input from pw.Si.scf.alat-10.3.in

     Current dimensions of program PWSCF are:
     Max number of different atomic species (ntypx) = 10
     Max number of k-points (npk) =  40000
     Max angular momentum in pseudopotentials (lmaxx) =  3

     Subspace diagonalization in iterative solution of the eigenvalue problem:
     a serial algorithm will be used

 
     G-vector sticks info
     --------------------
     sticks:   dense  smooth     PW     G-vecs:    dense   smooth      PW
     Sum         169     169     61                 1471     1471     331
 


     bravais-lattice index     =            2
     lattice parameter (alat)  =      10.3000  a.u.
     unit-cell volume          =     273.1818 (a.u.)^3
     number of atoms/cell      =            2
     number of atomic types    =            1
     number of electrons       =         8.00
     number of Kohn-Sham states=            4
     kinetic-energy cutoff     =      12.0000  Ry
     charge density cutoff     =      48.0000  Ry
     convergence threshold     =      1.0E-06
     mixing beta               =       0.7000
     number of iterations used =            8  plain     mixing
     Exchange-correlation= SLA PZ NOGX NOGC
                           (   1   1   0   0   0   0   0)

     celldm(1)=  10.300000  celldm(2)=   0.000000  celldm(3)=   0.000000
     celldm(4)=   0.000000  celldm(5)=   0.000000  celldm(6)=   0.000000

     crystal axes: (cart. coord. in units of alat)
               a(1) = (  -0.500000   0.000000   0.500000 )  
               a(2) = (   0.000000   0.500000   0.500000 )  
               a(3) = (  -0.500000   0.500000   0.000000 )  

     reciprocal axes: (cart. coord. in units 2 pi/alat)
               b(1) = ( -1.000000 -1.000000  1.000000 )  
               b(2) = (  1.000000  1.000000  1.000000 )  
               b(3) = ( -1.000000  1.000000 -1.000000 )  


     PseudoPot. # 1 for Si read from file:
     /home/groups/saraswat/qe-6.5/pseudo/Si.pz-vbc.UPF
     MD5 check sum: 9f25e6ff280f3123e9b3a84715b2e9c9
     Pseudo is Norm-conserving, Zval =  4.0
     Generated by new atomic code, or converted to UPF format
     Using radial grid of  431 points,  2 beta functions with: 
                l(1) =   0
                l(2) =   1

     atomic species   valence    mass     pseudopotential
        Si             4.00    28.08600     Si( 1.00)

     48 Sym. Ops., with inversion, found (24 have fractional translation)



   Cartesian axes

     site n.     atom                  positions (alat units)
         1           Si  tau(   1) = (   0.0000000   0.0000000   0.0000000  )
         2           Si  tau(   2) = (   0.2500000   0.2500000   0.2500000  )

     number of k points=    10
                       cart. coord. in units 2pi/alat
        k(    1) = (  -0.1250000   0.1250000   0.1250000), wk =   0.0625000
        k(    2) = (  -0.3750000   0.3750000  -0.1250000), wk =   0.1875000
        k(    3) = (   0.3750000  -0.3750000   0.6250000), wk =   0.1875000
        k(    4) = (   0.1250000  -0.1250000   0.3750000), wk =   0.1875000
        k(    5) = (  -0.1250000   0.6250000   0.1250000), wk =   0.1875000
        k(    6) = (   0.6250000  -0.1250000   0.8750000), wk =   0.3750000
        k(    7) = (   0.3750000   0.1250000   0.6250000), wk =   0.3750000
        k(    8) = (  -0.1250000  -0.8750000   0.1250000), wk =   0.1875000
        k(    9) = (  -0.3750000   0.3750000   0.3750000), wk =   0.0625000
        k(   10) = (   0.3750000  -0.3750000   1.1250000), wk =   0.1875000

     Dense  grid:     1471 G-vectors     FFT dimensions: (  20,  20,  20)

     Estimated max dynamical RAM per process >       1.50 MB

     Initial potential from superposition of free atoms

     starting charge    7.99901, renormalised to    8.00000
     Starting wfcs are    8 randomized atomic wfcs

     total cpu time spent up to now is        0.2 secs

     Self-consistent Calculation

     iteration #  1     ecut=    12.00 Ry     beta= 0.70
     Davidson diagonalization with overlap
     ethr =  1.00E-02,  avg # of iterations =  2.0

     Threshold (ethr) on eigenvalues was too large:
     Diagonalizing with lowered threshold

     Davidson diagonalization with overlap
     ethr =  7.03E-04,  avg # of iterations =  1.0

     total cpu time spent up to now is        0.2 secs

     total energy              =     -15.80476826 Ry
     Harris-Foulkes estimate   =     -15.82285127 Ry
     estimated scf accuracy    <       0.05636103 Ry

     iteration #  2     ecut=    12.00 Ry     beta= 0.70
     Davidson diagonalization with overlap
     ethr =  7.05E-04,  avg # of iterations =  1.0

     total cpu time spent up to now is        0.2 secs

     total energy              =     -15.80740427 Ry
     Harris-Foulkes estimate   =     -15.80769383 Ry
     estimated scf accuracy    <       0.00210888 Ry

     iteration #  3     ecut=    12.00 Ry     beta= 0.70
     Davidson diagonalization with overlap
     ethr =  2.64E-05,  avg # of iterations =  2.5

     total cpu time spent up to now is        0.3 secs

     total energy              =     -15.80780659 Ry
     Harris-Foulkes estimate   =     -15.80783127 Ry
     estimated scf accuracy    <       0.00006034 Ry

     iteration #  4     ecut=    12.00 Ry     beta= 0.70
     Davidson diagonalization with overlap
     ethr =  7.54E-07,  avg # of iterations =  2.3

     total cpu time spent up to now is        0.3 secs

     total energy              =     -15.80782058 Ry
     Harris-Foulkes estimate   =     -15.80782262 Ry
     estimated scf accuracy    <       0.00000487 Ry

     iteration #  5     ecut=    12.00 Ry     beta= 0.70
     Davidson diagonalization with overlap
     ethr =  6.08E-08,  avg # of iterations =  2.0

     total cpu time spent up to now is        0.3 secs

     End of self-consistent calculation

          k =-0.1250 0.1250 0.1250 (   178 PWs)   bands (ev):

    -5.6133   4.4144   5.6953   5.6953

          k =-0.3750 0.3750-0.1250 (   191 PWs)   bands (ev):

    -4.5814   1.4037   3.6717   5.1993

          k = 0.3750-0.3750 0.6250 (   190 PWs)   bands (ev):

    -3.4068  -0.7113   3.7040   4.4059

          k = 0.1250-0.1250 0.3750 (   189 PWs)   bands (ev):

    -5.0909   2.8024   4.6567   4.7456

          k =-0.1250 0.6250 0.1250 (   191 PWs)   bands (ev):

    -4.0449   1.1145   3.3062   3.7606

          k = 0.6250-0.1250 0.8750 (   194 PWs)   bands (ev):

    -2.3876  -0.8468   1.9096   3.0087

          k = 0.3750 0.1250 0.6250 (   192 PWs)   bands (ev):

    -3.6206   0.2076   2.6598   4.0429

          k =-0.1250-0.8750 0.1250 (   198 PWs)   bands (ev):

    -2.5731  -0.7510   2.5308   3.2838

          k =-0.3750 0.3750 0.3750 (   189 PWs)   bands (ev):

    -4.1238   0.0837   4.8854   4.8854

          k = 0.3750-0.3750 1.1250 (   190 PWs)   bands (ev):

    -2.9113  -0.5805   1.9869   4.0829

     highest occupied level (ev):     5.6953

!    total energy              =     -15.80782130 Ry
     Harris-Foulkes estimate   =     -15.80782132 Ry
     estimated scf accuracy    <       0.00000004 Ry

     The total energy is the sum of the following terms:

     one-electron contribution =       4.61076407 Ry
     hartree contribution      =       1.09123408 Ry
     xc contribution           =      -4.77413619 Ry
     ewald contribution        =     -16.73568325 Ry

     convergence has been achieved in   5 iterations

     Writing output data file /scratch/groups/saraswat/aravind2/qe/silicon.save/
 
     init_run     :      0.04s CPU      0.06s WALL (       1 calls)
     electrons    :      0.18s CPU      0.22s WALL (       1 calls)

     Called by init_run:
     wfcinit      :      0.02s CPU      0.02s WALL (       1 calls)
     potinit      :      0.00s CPU      0.00s WALL (       1 calls)
     hinit0       :      0.01s CPU      0.02s WALL (       1 calls)

     Called by electrons:
     c_bands      :      0.14s CPU      0.16s WALL (       6 calls)
     sum_band     :      0.03s CPU      0.03s WALL (       6 calls)
     v_of_rho     :      0.00s CPU      0.00s WALL (       6 calls)
     mix_rho      :      0.00s CPU      0.00s WALL (       6 calls)

     Called by c_bands:
     init_us_2    :      0.00s CPU      0.00s WALL (     130 calls)
     cegterg      :      0.14s CPU      0.15s WALL (      60 calls)

     Called by sum_band:

     Called by *egterg:
     h_psi        :      0.15s CPU      0.16s WALL (     178 calls)
     g_psi        :      0.00s CPU      0.00s WALL (     108 calls)
     cdiaghg      :      0.01s CPU      0.01s WALL (     158 calls)

     Called by h_psi:
     h_psi:calbec :      0.00s CPU      0.00s WALL (     178 calls)
     vloc_psi     :      0.14s CPU      0.15s WALL (     178 calls)
     add_vuspsi   :      0.00s CPU      0.00s WALL (     178 calls)

     General routines
     calbec       :      0.00s CPU      0.00s WALL (     178 calls)
     fft          :      0.00s CPU      0.01s WALL (      18 calls)
     ffts         :      0.00s CPU      0.00s WALL (       6 calls)
     fftw         :      0.16s CPU      0.17s WALL (    1640 calls)
 
     Parallel routines
 
     PWSCF        :      0.29s CPU      0.64s WALL

 
   This run was terminated on:   2: 1: 4  31May2020            

=------------------------------------------------------------------------------=
   JOB DONE.
=------------------------------------------------------------------------------=
