### Running on host: sh02-ln01.stanford.edu

     Program PWSCF v.6.5 starts on 31May2020 at  2: 1: 7 

     This program is part of the open-source Quantum ESPRESSO suite
     for quantum simulation of materials; please cite
         "P. Giannozzi et al., J. Phys.:Condens. Matter 21 395502 (2009);
         "P. Giannozzi et al., J. Phys.:Condens. Matter 29 465901 (2017);
          URL http://www.quantum-espresso.org", 
     in publications or presentations arising from this work. More details at
     http://www.quantum-espresso.org/quote

     Parallel version (MPI), running on     1 processors

     MPI processes distributed on     1 nodes
     Reading input from pw.Si.scf.alat-10.7.in

     Current dimensions of program PWSCF are:
     Max number of different atomic species (ntypx) = 10
     Max number of k-points (npk) =  40000
     Max angular momentum in pseudopotentials (lmaxx) =  3

     Subspace diagonalization in iterative solution of the eigenvalue problem:
     a serial algorithm will be used

 
     G-vector sticks info
     --------------------
     sticks:   dense  smooth     PW     G-vecs:    dense   smooth      PW
     Sum         199     199     73                 1759     1759     387
 


     bravais-lattice index     =            2
     lattice parameter (alat)  =      10.7000  a.u.
     unit-cell volume          =     306.2607 (a.u.)^3
     number of atoms/cell      =            2
     number of atomic types    =            1
     number of electrons       =         8.00
     number of Kohn-Sham states=            4
     kinetic-energy cutoff     =      12.0000  Ry
     charge density cutoff     =      48.0000  Ry
     convergence threshold     =      1.0E-06
     mixing beta               =       0.7000
     number of iterations used =            8  plain     mixing
     Exchange-correlation= SLA PZ NOGX NOGC
                           (   1   1   0   0   0   0   0)

     celldm(1)=  10.700000  celldm(2)=   0.000000  celldm(3)=   0.000000
     celldm(4)=   0.000000  celldm(5)=   0.000000  celldm(6)=   0.000000

     crystal axes: (cart. coord. in units of alat)
               a(1) = (  -0.500000   0.000000   0.500000 )  
               a(2) = (   0.000000   0.500000   0.500000 )  
               a(3) = (  -0.500000   0.500000   0.000000 )  

     reciprocal axes: (cart. coord. in units 2 pi/alat)
               b(1) = ( -1.000000 -1.000000  1.000000 )  
               b(2) = (  1.000000  1.000000  1.000000 )  
               b(3) = ( -1.000000  1.000000 -1.000000 )  


     PseudoPot. # 1 for Si read from file:
     /home/groups/saraswat/qe-6.5/pseudo/Si.pz-vbc.UPF
     MD5 check sum: 9f25e6ff280f3123e9b3a84715b2e9c9
     Pseudo is Norm-conserving, Zval =  4.0
     Generated by new atomic code, or converted to UPF format
     Using radial grid of  431 points,  2 beta functions with: 
                l(1) =   0
                l(2) =   1

     atomic species   valence    mass     pseudopotential
        Si             4.00    28.08600     Si( 1.00)

     48 Sym. Ops., with inversion, found (24 have fractional translation)



   Cartesian axes

     site n.     atom                  positions (alat units)
         1           Si  tau(   1) = (   0.0000000   0.0000000   0.0000000  )
         2           Si  tau(   2) = (   0.2500000   0.2500000   0.2500000  )

     number of k points=    10
                       cart. coord. in units 2pi/alat
        k(    1) = (  -0.1250000   0.1250000   0.1250000), wk =   0.0625000
        k(    2) = (  -0.3750000   0.3750000  -0.1250000), wk =   0.1875000
        k(    3) = (   0.3750000  -0.3750000   0.6250000), wk =   0.1875000
        k(    4) = (   0.1250000  -0.1250000   0.3750000), wk =   0.1875000
        k(    5) = (  -0.1250000   0.6250000   0.1250000), wk =   0.1875000
        k(    6) = (   0.6250000  -0.1250000   0.8750000), wk =   0.3750000
        k(    7) = (   0.3750000   0.1250000   0.6250000), wk =   0.3750000
        k(    8) = (  -0.1250000  -0.8750000   0.1250000), wk =   0.1875000
        k(    9) = (  -0.3750000   0.3750000   0.3750000), wk =   0.0625000
        k(   10) = (   0.3750000  -0.3750000   1.1250000), wk =   0.1875000

     Dense  grid:     1759 G-vectors     FFT dimensions: (  20,  20,  20)

     Estimated max dynamical RAM per process >       1.65 MB

     Initial potential from superposition of free atoms

     starting charge    7.99901, renormalised to    8.00000
     Starting wfcs are    8 randomized atomic wfcs

     total cpu time spent up to now is        0.1 secs

     Self-consistent Calculation

     iteration #  1     ecut=    12.00 Ry     beta= 0.70
     Davidson diagonalization with overlap
     ethr =  1.00E-02,  avg # of iterations =  2.0

     Threshold (ethr) on eigenvalues was too large:
     Diagonalizing with lowered threshold

     Davidson diagonalization with overlap
     ethr =  5.73E-04,  avg # of iterations =  1.1

     total cpu time spent up to now is        0.2 secs

     total energy              =     -15.79497258 Ry
     Harris-Foulkes estimate   =     -15.80782637 Ry
     estimated scf accuracy    <       0.04613392 Ry

     iteration #  2     ecut=    12.00 Ry     beta= 0.70
     Davidson diagonalization with overlap
     ethr =  5.77E-04,  avg # of iterations =  1.0

     total cpu time spent up to now is        0.2 secs

     total energy              =     -15.79655830 Ry
     Harris-Foulkes estimate   =     -15.79686105 Ry
     estimated scf accuracy    <       0.00211045 Ry

     iteration #  3     ecut=    12.00 Ry     beta= 0.70
     Davidson diagonalization with overlap
     ethr =  2.64E-05,  avg # of iterations =  2.1

     total cpu time spent up to now is        0.3 secs

     total energy              =     -15.79683265 Ry
     Harris-Foulkes estimate   =     -15.79684939 Ry
     estimated scf accuracy    <       0.00004160 Ry

     iteration #  4     ecut=    12.00 Ry     beta= 0.70
     Davidson diagonalization with overlap
     ethr =  5.20E-07,  avg # of iterations =  2.7

     total cpu time spent up to now is        0.3 secs

     total energy              =     -15.79684807 Ry
     Harris-Foulkes estimate   =     -15.79684883 Ry
     estimated scf accuracy    <       0.00000205 Ry

     iteration #  5     ecut=    12.00 Ry     beta= 0.70
     Davidson diagonalization with overlap
     ethr =  2.57E-08,  avg # of iterations =  2.2

     total cpu time spent up to now is        0.3 secs

     End of self-consistent calculation

          k =-0.1250 0.1250 0.1250 (   214 PWs)   bands (ev):

    -6.0253   3.2832   4.5983   4.5983

          k =-0.3750 0.3750-0.1250 (   213 PWs)   bands (ev):

    -5.0893   0.4819   2.7637   4.1404

          k = 0.3750-0.3750 0.6250 (   219 PWs)   bands (ev):

    -4.0805  -1.3966   2.7442   3.4362

          k = 0.1250-0.1250 0.3750 (   215 PWs)   bands (ev):

    -5.5393   1.7270   3.6822   3.6970

          k =-0.1250 0.6250 0.1250 (   217 PWs)   bands (ev):

    -4.6121   0.0948   2.4586   2.8725

          k = 0.6250-0.1250 0.8750 (   215 PWs)   bands (ev):

    -3.1270  -1.7021   1.2455   2.2237

          k = 0.3750 0.1250 0.6250 (   215 PWs)   bands (ev):

    -4.2369  -0.6554   1.8580   3.1263

          k =-0.1250-0.8750 0.1250 (   215 PWs)   bands (ev):

    -3.2725  -1.6251   1.7952   2.4370

          k =-0.3750 0.3750 0.3750 (   217 PWs)   bands (ev):

    -4.7127  -0.6648   3.8544   3.8544

          k = 0.3750-0.3750 1.1250 (   217 PWs)   bands (ev):

    -3.6238  -1.3784   1.2740   3.1503

     highest occupied level (ev):     4.5983

!    total energy              =     -15.79684849 Ry
     Harris-Foulkes estimate   =     -15.79684853 Ry
     estimated scf accuracy    <       0.00000007 Ry

     The total energy is the sum of the following terms:

     one-electron contribution =       3.77886413 Ry
     hartree contribution      =       1.19043210 Ry
     xc contribution           =      -4.65609449 Ry
     ewald contribution        =     -16.11005023 Ry

     convergence has been achieved in   5 iterations

     Writing output data file /scratch/groups/saraswat/aravind2/qe/silicon.save/
 
     init_run     :      0.05s CPU      0.06s WALL (       1 calls)
     electrons    :      0.17s CPU      0.21s WALL (       1 calls)

     Called by init_run:
     wfcinit      :      0.03s CPU      0.03s WALL (       1 calls)
     potinit      :      0.00s CPU      0.00s WALL (       1 calls)
     hinit0       :      0.02s CPU      0.02s WALL (       1 calls)

     Called by electrons:
     c_bands      :      0.14s CPU      0.15s WALL (       6 calls)
     sum_band     :      0.03s CPU      0.03s WALL (       6 calls)
     v_of_rho     :      0.00s CPU      0.00s WALL (       6 calls)
     mix_rho      :      0.00s CPU      0.00s WALL (       6 calls)

     Called by c_bands:
     init_us_2    :      0.00s CPU      0.00s WALL (     130 calls)
     cegterg      :      0.13s CPU      0.14s WALL (      60 calls)

     Called by sum_band:

     Called by *egterg:
     h_psi        :      0.14s CPU      0.15s WALL (     181 calls)
     g_psi        :      0.00s CPU      0.00s WALL (     111 calls)
     cdiaghg      :      0.01s CPU      0.01s WALL (     161 calls)

     Called by h_psi:
     h_psi:calbec :      0.00s CPU      0.00s WALL (     181 calls)
     vloc_psi     :      0.14s CPU      0.15s WALL (     181 calls)
     add_vuspsi   :      0.00s CPU      0.00s WALL (     181 calls)

     General routines
     calbec       :      0.00s CPU      0.00s WALL (     181 calls)
     fft          :      0.01s CPU      0.01s WALL (      18 calls)
     ffts         :      0.00s CPU      0.00s WALL (       6 calls)
     fftw         :      0.15s CPU      0.16s WALL (    1622 calls)
 
     Parallel routines
 
     PWSCF        :      0.30s CPU      0.69s WALL

 
   This run was terminated on:   2: 1: 7  31May2020            

=------------------------------------------------------------------------------=
   JOB DONE.
=------------------------------------------------------------------------------=
