### Running on host: assam

     Program PWSCF v.6.4.1 starts on 13Aug2019 at 18:13:20 

     This program is part of the open-source Quantum ESPRESSO suite
     for quantum simulation of materials; please cite
         "P. Giannozzi et al., J. Phys.:Condens. Matter 21 395502 (2009);
         "P. Giannozzi et al., J. Phys.:Condens. Matter 29 465901 (2017);
          URL http://www.quantum-espresso.org", 
     in publications or presentations arising from this work. More details at
     http://www.quantum-espresso.org/quote

     Parallel version (MPI), running on     2 processors

     MPI processes distributed on     1 nodes
     R & G space division:  proc/nbgrp/npool/nimage =       2
     Reading input from scf.Si.kpoints-6x6x6.in

     Current dimensions of program PWSCF are:
     Max number of different atomic species (ntypx) = 10
     Max number of k-points (npk) =  40000
     Max angular momentum in pseudopotentials (lmaxx) =  3

     Subspace diagonalization in iterative solution of the eigenvalue problem:
     a serial algorithm will be used


     Parallelization info
     --------------------
     sticks:   dense  smooth     PW     G-vecs:    dense   smooth      PW
     Min         135     135     48                 1487     1487     322
     Max         136     136     49                 1488     1488     323
     Sum         271     271     97                 2975     2975     645



     bravais-lattice index     =            2
     lattice parameter (alat)  =      10.0000  a.u.
     unit-cell volume          =     250.0000 (a.u.)^3
     number of atoms/cell      =            2
     number of atomic types    =            1
     number of electrons       =         8.00
     number of Kohn-Sham states=            4
     kinetic-energy cutoff     =      20.0000  Ry
     charge density cutoff     =      80.0000  Ry
     convergence threshold     =      1.0E-09
     mixing beta               =       0.7000
     number of iterations used =            8  plain     mixing
     Exchange-correlation      =  SLA  PZ   NOGX NOGC ( 1  1  0  0 0 0)

     celldm(1)=  10.000000  celldm(2)=   0.000000  celldm(3)=   0.000000
     celldm(4)=   0.000000  celldm(5)=   0.000000  celldm(6)=   0.000000

     crystal axes: (cart. coord. in units of alat)
               a(1) = (  -0.500000   0.000000   0.500000 )  
               a(2) = (   0.000000   0.500000   0.500000 )  
               a(3) = (  -0.500000   0.500000   0.000000 )  

     reciprocal axes: (cart. coord. in units 2 pi/alat)
               b(1) = ( -1.000000 -1.000000  1.000000 )  
               b(2) = (  1.000000  1.000000  1.000000 )  
               b(3) = ( -1.000000  1.000000 -1.000000 )  


     PseudoPot. # 1 for Si read from file:
     /home/matic/pw/pseudo/Si.pz-vbc.UPF
     MD5 check sum: 6dfa03ddd5817404712e03e4d12deb78
     Pseudo is Norm-conserving, Zval =  4.0
     Generated by new atomic code, or converted to UPF format
     Using radial grid of  431 points,  2 beta functions with: 
                l(1) =   0
                l(2) =   1

     atomic species   valence    mass     pseudopotential
        Si             4.00    28.08600     Si( 1.00)

     48 Sym. Ops., with inversion, found (24 have fractional translation)



   Cartesian axes

     site n.     atom                  positions (alat units)
         1           Si  tau(   1) = (   0.0000000   0.0000000   0.0000000  )
         2           Si  tau(   2) = (  -0.2500000   0.2500000   0.2500000  )

     number of k points=    28
                       cart. coord. in units 2pi/alat
        k(    1) = (  -0.0833333   0.0833333   0.0833333), wk =   0.0185185
        k(    2) = (  -0.2500000   0.2500000  -0.0833333), wk =   0.0555556
        k(    3) = (  -0.4166667   0.4166667  -0.2500000), wk =   0.0555556
        k(    4) = (   0.4166667  -0.4166667   0.5833333), wk =   0.0555556
        k(    5) = (   0.2500000  -0.2500000   0.4166667), wk =   0.0555556
        k(    6) = (   0.0833333  -0.0833333   0.2500000), wk =   0.0555556
        k(    7) = (  -0.0833333   0.4166667   0.0833333), wk =   0.0555556
        k(    8) = (  -0.2500000   0.5833333  -0.0833333), wk =   0.1111111
        k(    9) = (   0.5833333  -0.2500000   0.7500000), wk =   0.1111111
        k(   10) = (   0.4166667  -0.0833333   0.5833333), wk =   0.1111111
        k(   11) = (   0.2500000   0.0833333   0.4166667), wk =   0.1111111
        k(   12) = (  -0.0833333   0.7500000   0.0833333), wk =   0.0555556
        k(   13) = (   0.7500000  -0.0833333   0.9166667), wk =   0.1111111
        k(   14) = (   0.5833333   0.0833333   0.7500000), wk =   0.1111111
        k(   15) = (   0.4166667   0.2500000   0.5833333), wk =   0.1111111
        k(   16) = (  -0.0833333  -0.9166667   0.0833333), wk =   0.0555556
        k(   17) = (  -0.2500000  -0.7500000  -0.0833333), wk =   0.1111111
        k(   18) = (  -0.0833333  -0.5833333   0.0833333), wk =   0.0555556
        k(   19) = (  -0.2500000   0.2500000   0.2500000), wk =   0.0185185
        k(   20) = (  -0.4166667   0.4166667   0.0833333), wk =   0.0555556
        k(   21) = (   0.4166667  -0.4166667   0.9166667), wk =   0.0555556
        k(   22) = (   0.2500000  -0.2500000   0.7500000), wk =   0.0555556
        k(   23) = (  -0.2500000   0.5833333   0.2500000), wk =   0.0555556
        k(   24) = (   0.5833333  -0.2500000   1.0833333), wk =   0.1111111
        k(   25) = (   0.4166667  -0.0833333   0.9166667), wk =   0.1111111
        k(   26) = (  -0.2500000  -1.0833333   0.2500000), wk =   0.0555556
        k(   27) = (  -0.4166667   0.4166667   0.4166667), wk =   0.0185185
        k(   28) = (   0.4166667  -0.4166667   1.2500000), wk =   0.0555556

     Dense  grid:     2975 G-vectors     FFT dimensions: (  24,  24,  24)

     Estimated max dynamical RAM per process >       1.65 MB

     Estimated total dynamical RAM >       3.31 MB

     Initial potential from superposition of free atoms

     starting charge    7.99901, renormalised to    8.00000
     Starting wfcs are    8 randomized atomic wfcs

     total cpu time spent up to now is        0.1 secs

     Self-consistent Calculation

     iteration #  1     ecut=    20.00 Ry     beta= 0.70
     Davidson diagonalization with overlap
     ethr =  1.00E-02,  avg # of iterations =  2.0

     Threshold (ethr) on eigenvalues was too large:
     Diagonalizing with lowered threshold

     Davidson diagonalization with overlap
     ethr =  8.63E-04,  avg # of iterations =  1.0

     total cpu time spent up to now is        0.4 secs

     total energy              =     -15.83987657 Ry
     Harris-Foulkes estimate   =     -15.86423382 Ry
     estimated scf accuracy    <       0.06806157 Ry

     iteration #  2     ecut=    20.00 Ry     beta= 0.70
     Davidson diagonalization with overlap
     ethr =  8.51E-04,  avg # of iterations =  1.0

     total cpu time spent up to now is        0.4 secs

     total energy              =     -15.84364696 Ry
     Harris-Foulkes estimate   =     -15.84393298 Ry
     estimated scf accuracy    <       0.00216627 Ry

     iteration #  3     ecut=    20.00 Ry     beta= 0.70
     Davidson diagonalization with overlap
     ethr =  2.71E-05,  avg # of iterations =  2.7

     total cpu time spent up to now is        0.6 secs

     total energy              =     -15.84419522 Ry
     Harris-Foulkes estimate   =     -15.84423428 Ry
     estimated scf accuracy    <       0.00008492 Ry

     iteration #  4     ecut=    20.00 Ry     beta= 0.70
     Davidson diagonalization with overlap
     ethr =  1.06E-06,  avg # of iterations =  2.1

     total cpu time spent up to now is        0.7 secs

     total energy              =     -15.84421158 Ry
     Harris-Foulkes estimate   =     -15.84421603 Ry
     estimated scf accuracy    <       0.00000967 Ry

     iteration #  5     ecut=    20.00 Ry     beta= 0.70
     Davidson diagonalization with overlap
     ethr =  1.21E-07,  avg # of iterations =  2.0

     total cpu time spent up to now is        0.8 secs

     total energy              =     -15.84421289 Ry
     Harris-Foulkes estimate   =     -15.84421291 Ry
     estimated scf accuracy    <       0.00000006 Ry

     iteration #  6     ecut=    20.00 Ry     beta= 0.70
     Davidson diagonalization with overlap
     ethr =  6.98E-10,  avg # of iterations =  2.8

     total cpu time spent up to now is        1.0 secs

     total energy              =     -15.84421292 Ry
     Harris-Foulkes estimate   =     -15.84421292 Ry
     estimated scf accuracy    <          1.5E-09 Ry

     iteration #  7     ecut=    20.00 Ry     beta= 0.70
     Davidson diagonalization with overlap
     ethr =  1.90E-11,  avg # of iterations =  2.0

     total cpu time spent up to now is        1.1 secs

     End of self-consistent calculation

          k =-0.0833 0.0833 0.0833 (   363 PWs)   bands (ev):

    -5.5001   6.0195   6.7331   6.7331

          k =-0.2500 0.2500-0.0833 (   366 PWs)   bands (ev):

    -4.9885   3.8686   5.3920   6.5192

          k =-0.4167 0.4167-0.2500 (   374 PWs)   bands (ev):

    -3.8027   0.9069   4.9228   5.8338

          k = 0.4167-0.4167 0.5833 (   378 PWs)   bands (ev):

    -3.0142  -0.3560   5.0122   5.4175

          k = 0.2500-0.2500 0.4167 (   375 PWs)   bands (ev):

    -4.2537   1.8200   5.4689   5.5503

          k = 0.0833-0.0833 0.2500 (   370 PWs)   bands (ev):

    -5.2424   4.9380   6.0214   6.2644

          k =-0.0833 0.4167 0.0833 (   368 PWs)   bands (ev):

    -4.7301   3.7453   5.2322   5.2492

          k =-0.2500 0.5833-0.0833 (   376 PWs)   bands (ev):

    -3.7488   1.8093   3.7953   4.8195

          k = 0.5833-0.2500 0.7500 (   378 PWs)   bands (ev):

    -2.5072  -0.1348   3.1791   4.5610

          k = 0.4167-0.0833 0.5833 (   381 PWs)   bands (ev):

    -3.3153   1.0471   3.0941   5.1023

          k = 0.2500 0.0833 0.4167 (   375 PWs)   bands (ev):

    -4.4870   2.8170   4.5541   5.8483

          k =-0.0833 0.7500 0.0833 (   375 PWs)   bands (ev):

    -2.9880   0.9951   3.7374   4.1256

          k = 0.7500-0.0833 0.9167 (   378 PWs)   bands (ev):

    -1.6860  -0.4309   2.7905   3.6625

          k = 0.5833 0.0833 0.7500 (   382 PWs)   bands (ev):

    -2.0574  -0.1291   2.2749   4.2599

          k = 0.4167 0.2500 0.5833 (   377 PWs)   bands (ev):

    -3.1801   0.2276   4.1725   5.2153

          k =-0.0833-0.9167 0.0833 (   375 PWs)   bands (ev):

    -1.7990  -0.4465   3.4426   3.8947

          k =-0.2500-0.7500-0.0833 (   384 PWs)   bands (ev):

    -2.7989   0.7441   3.1651   4.0304

          k =-0.0833-0.5833 0.0833 (   370 PWs)   bands (ev):

    -3.9738   2.4281   4.3423   4.5790

          k =-0.2500 0.2500 0.2500 (   368 PWs)   bands (ev):

    -4.7411   2.8054   6.0746   6.0746

          k =-0.4167 0.4167 0.0833 (   375 PWs)   bands (ev):

    -4.0081   1.8773   3.7591   5.8996

          k = 0.4167-0.4167 0.9167 (   382 PWs)   bands (ev):

    -2.7176   0.3760   2.5375   5.0377

          k = 0.2500-0.2500 0.7500 (   377 PWs)   bands (ev):

    -2.6669   0.2946   3.0786   4.5106

          k =-0.2500 0.5833 0.2500 (   378 PWs)   bands (ev):

    -3.5466   0.9957   4.3149   4.9144

          k = 0.5833-0.2500 1.0833 (   383 PWs)   bands (ev):

    -2.4558   0.3014   2.6387   4.0162

          k = 0.4167-0.0833 0.9167 (   383 PWs)   bands (ev):

    -1.5510  -0.4396   2.4226   3.2748

          k =-0.2500-1.0833 0.2500 (   382 PWs)   bands (ev):

    -1.7742  -0.3717   2.2857   4.3012

          k =-0.4167 0.4167 0.4167 (   374 PWs)   bands (ev):

    -3.4318   0.0838   5.6672   5.6672

          k = 0.4167-0.4167 1.2500 (   379 PWs)   bands (ev):

    -2.7638  -0.2137   3.7066   5.1786

     highest occupied level (ev):     6.7331

!    total energy              =     -15.84421292 Ry
     Harris-Foulkes estimate   =     -15.84421292 Ry
     estimated scf accuracy    <          9.8E-12 Ry

     The total energy is the sum of the following terms:

     one-electron contribution =       5.24646742 Ry
     hartree contribution      =       1.02846985 Ry
     xc contribution           =      -4.88139640 Ry
     ewald contribution        =     -17.23775378 Ry

     convergence has been achieved in   7 iterations

     Writing output data file pwscf.save/

     init_run     :      0.10s CPU      0.11s WALL (       1 calls)
     electrons    :      0.92s CPU      1.00s WALL (       1 calls)

     Called by init_run:
     wfcinit      :      0.08s CPU      0.09s WALL (       1 calls)
     potinit      :      0.00s CPU      0.00s WALL (       1 calls)
     hinit0       :      0.01s CPU      0.01s WALL (       1 calls)

     Called by electrons:
     c_bands      :      0.77s CPU      0.83s WALL (       8 calls)
     sum_band     :      0.14s CPU      0.16s WALL (       8 calls)
     v_of_rho     :      0.01s CPU      0.01s WALL (       8 calls)
     mix_rho      :      0.00s CPU      0.00s WALL (       8 calls)

     Called by c_bands:
     init_us_2    :      0.02s CPU      0.03s WALL (     476 calls)
     cegterg      :      0.75s CPU      0.80s WALL (     224 calls)

     Called by sum_band:

     Called by *egterg:
     h_psi        :      0.75s CPU      0.80s WALL (     688 calls)
     g_psi        :      0.00s CPU      0.00s WALL (     436 calls)
     cdiaghg      :      0.03s CPU      0.03s WALL (     632 calls)

     Called by h_psi:
     h_psi:pot    :      0.75s CPU      0.80s WALL (     688 calls)
     h_psi:calbec :      0.01s CPU      0.01s WALL (     688 calls)
     vloc_psi     :      0.72s CPU      0.78s WALL (     688 calls)
     add_vuspsi   :      0.01s CPU      0.01s WALL (     688 calls)

     General routines
     calbec       :      0.01s CPU      0.01s WALL (     688 calls)
     fft          :      0.00s CPU      0.01s WALL (      24 calls)
     ffts         :      0.00s CPU      0.00s WALL (       8 calls)
     fftw         :      0.79s CPU      0.85s WALL (    6126 calls)

     Parallel routines
     fft_scatt_xy :      0.08s CPU      0.08s WALL (    6158 calls)
     fft_scatt_yz :      0.11s CPU      0.11s WALL (    6158 calls)

     PWSCF        :      1.05s CPU      1.13s WALL


   This run was terminated on:  18:13:21  13Aug2019            

=------------------------------------------------------------------------------=
   JOB DONE.
=------------------------------------------------------------------------------=
