### Running on host: assam

     Program PWSCF v.6.4.1 starts on 13Aug2019 at 18:13:17 

     This program is part of the open-source Quantum ESPRESSO suite
     for quantum simulation of materials; please cite
         "P. Giannozzi et al., J. Phys.:Condens. Matter 21 395502 (2009);
         "P. Giannozzi et al., J. Phys.:Condens. Matter 29 465901 (2017);
          URL http://www.quantum-espresso.org", 
     in publications or presentations arising from this work. More details at
     http://www.quantum-espresso.org/quote

     Parallel version (MPI), running on     2 processors

     MPI processes distributed on     1 nodes
     R & G space division:  proc/nbgrp/npool/nimage =       2
     Reading input from scf.Si.kpoints-2x2x2.in

     Current dimensions of program PWSCF are:
     Max number of different atomic species (ntypx) = 10
     Max number of k-points (npk) =  40000
     Max angular momentum in pseudopotentials (lmaxx) =  3

     Subspace diagonalization in iterative solution of the eigenvalue problem:
     a serial algorithm will be used


     Parallelization info
     --------------------
     sticks:   dense  smooth     PW     G-vecs:    dense   smooth      PW
     Min         135     135     42                 1487     1487     264
     Max         136     136     43                 1488     1488     267
     Sum         271     271     85                 2975     2975     531



     bravais-lattice index     =            2
     lattice parameter (alat)  =      10.0000  a.u.
     unit-cell volume          =     250.0000 (a.u.)^3
     number of atoms/cell      =            2
     number of atomic types    =            1
     number of electrons       =         8.00
     number of Kohn-Sham states=            4
     kinetic-energy cutoff     =      20.0000  Ry
     charge density cutoff     =      80.0000  Ry
     convergence threshold     =      1.0E-09
     mixing beta               =       0.7000
     number of iterations used =            8  plain     mixing
     Exchange-correlation      =  SLA  PZ   NOGX NOGC ( 1  1  0  0 0 0)

     celldm(1)=  10.000000  celldm(2)=   0.000000  celldm(3)=   0.000000
     celldm(4)=   0.000000  celldm(5)=   0.000000  celldm(6)=   0.000000

     crystal axes: (cart. coord. in units of alat)
               a(1) = (  -0.500000   0.000000   0.500000 )  
               a(2) = (   0.000000   0.500000   0.500000 )  
               a(3) = (  -0.500000   0.500000   0.000000 )  

     reciprocal axes: (cart. coord. in units 2 pi/alat)
               b(1) = ( -1.000000 -1.000000  1.000000 )  
               b(2) = (  1.000000  1.000000  1.000000 )  
               b(3) = ( -1.000000  1.000000 -1.000000 )  


     PseudoPot. # 1 for Si read from file:
     /home/matic/pw/pseudo/Si.pz-vbc.UPF
     MD5 check sum: 6dfa03ddd5817404712e03e4d12deb78
     Pseudo is Norm-conserving, Zval =  4.0
     Generated by new atomic code, or converted to UPF format
     Using radial grid of  431 points,  2 beta functions with: 
                l(1) =   0
                l(2) =   1

     atomic species   valence    mass     pseudopotential
        Si             4.00    28.08600     Si( 1.00)

     48 Sym. Ops., with inversion, found (24 have fractional translation)



   Cartesian axes

     site n.     atom                  positions (alat units)
         1           Si  tau(   1) = (   0.0000000   0.0000000   0.0000000  )
         2           Si  tau(   2) = (  -0.2500000   0.2500000   0.2500000  )

     number of k points=     2
                       cart. coord. in units 2pi/alat
        k(    1) = (  -0.2500000   0.2500000   0.2500000), wk =   0.5000000
        k(    2) = (   0.2500000  -0.2500000   0.7500000), wk =   1.5000000

     Dense  grid:     2975 G-vectors     FFT dimensions: (  24,  24,  24)

     Estimated max dynamical RAM per process >       1.35 MB

     Estimated total dynamical RAM >       2.71 MB

     Initial potential from superposition of free atoms

     starting charge    7.99901, renormalised to    8.00000
     Starting wfcs are    8 randomized atomic wfcs

     total cpu time spent up to now is        0.0 secs

     Self-consistent Calculation

     iteration #  1     ecut=    20.00 Ry     beta= 0.70
     Davidson diagonalization with overlap
     ethr =  1.00E-02,  avg # of iterations =  2.0

     Threshold (ethr) on eigenvalues was too large:
     Diagonalizing with lowered threshold

     Davidson diagonalization with overlap
     ethr =  9.28E-04,  avg # of iterations =  1.0

     total cpu time spent up to now is        0.1 secs

     total energy              =     -15.82698643 Ry
     Harris-Foulkes estimate   =     -15.85348875 Ry
     estimated scf accuracy    <       0.07339248 Ry

     iteration #  2     ecut=    20.00 Ry     beta= 0.70
     Davidson diagonalization with overlap
     ethr =  9.17E-04,  avg # of iterations =  1.0

     total cpu time spent up to now is        0.1 secs

     total energy              =     -15.83090879 Ry
     Harris-Foulkes estimate   =     -15.83123736 Ry
     estimated scf accuracy    <       0.00237626 Ry

     iteration #  3     ecut=    20.00 Ry     beta= 0.70
     Davidson diagonalization with overlap
     ethr =  2.97E-05,  avg # of iterations =  2.0

     total cpu time spent up to now is        0.1 secs

     total energy              =     -15.83136793 Ry
     Harris-Foulkes estimate   =     -15.83140322 Ry
     estimated scf accuracy    <       0.00008533 Ry

     iteration #  4     ecut=    20.00 Ry     beta= 0.70
     Davidson diagonalization with overlap
     ethr =  1.07E-06,  avg # of iterations =  2.0

     total cpu time spent up to now is        0.1 secs

     total energy              =     -15.83138686 Ry
     Harris-Foulkes estimate   =     -15.83139127 Ry
     estimated scf accuracy    <       0.00000943 Ry

     iteration #  5     ecut=    20.00 Ry     beta= 0.70
     Davidson diagonalization with overlap
     ethr =  1.18E-07,  avg # of iterations =  2.0

     total cpu time spent up to now is        0.1 secs

     total energy              =     -15.83138822 Ry
     Harris-Foulkes estimate   =     -15.83138826 Ry
     estimated scf accuracy    <       0.00000008 Ry

     iteration #  6     ecut=    20.00 Ry     beta= 0.70
     Davidson diagonalization with overlap
     ethr =  1.05E-09,  avg # of iterations =  3.0

     total cpu time spent up to now is        0.1 secs

     total energy              =     -15.83138826 Ry
     Harris-Foulkes estimate   =     -15.83138826 Ry
     estimated scf accuracy    <          1.9E-09 Ry

     iteration #  7     ecut=    20.00 Ry     beta= 0.70
     Davidson diagonalization with overlap
     ethr =  2.36E-11,  avg # of iterations =  2.0

     total cpu time spent up to now is        0.1 secs

     End of self-consistent calculation

          k =-0.2500 0.2500 0.2500 (   368 PWs)   bands (ev):

    -4.7143   2.8337   6.1079   6.1079

          k = 0.2500-0.2500 0.7500 (   377 PWs)   bands (ev):

    -2.6373   0.3237   3.1024   4.5390

     highest occupied level (ev):     6.1079

!    total energy              =     -15.83138826 Ry
     Harris-Foulkes estimate   =     -15.83138826 Ry
     estimated scf accuracy    <          2.4E-11 Ry

     The total energy is the sum of the following terms:

     one-electron contribution =       5.24811366 Ry
     hartree contribution      =       1.04764486 Ry
     xc contribution           =      -4.88939299 Ry
     ewald contribution        =     -17.23775378 Ry

     convergence has been achieved in   7 iterations

     Writing output data file pwscf.save/

     init_run     :      0.02s CPU      0.02s WALL (       1 calls)
     electrons    :      0.08s CPU      0.09s WALL (       1 calls)

     Called by init_run:
     wfcinit      :      0.01s CPU      0.01s WALL (       1 calls)
     potinit      :      0.00s CPU      0.00s WALL (       1 calls)
     hinit0       :      0.01s CPU      0.01s WALL (       1 calls)

     Called by electrons:
     c_bands      :      0.06s CPU      0.06s WALL (       8 calls)
     sum_band     :      0.02s CPU      0.02s WALL (       8 calls)
     v_of_rho     :      0.01s CPU      0.01s WALL (       8 calls)
     mix_rho      :      0.00s CPU      0.00s WALL (       8 calls)

     Called by c_bands:
     init_us_2    :      0.00s CPU      0.00s WALL (      34 calls)
     cegterg      :      0.05s CPU      0.05s WALL (      16 calls)

     Called by sum_band:

     Called by *egterg:
     h_psi        :      0.05s CPU      0.05s WALL (      48 calls)
     g_psi        :      0.00s CPU      0.00s WALL (      30 calls)
     cdiaghg      :      0.00s CPU      0.00s WALL (      44 calls)

     Called by h_psi:
     h_psi:pot    :      0.05s CPU      0.05s WALL (      48 calls)
     h_psi:calbec :      0.00s CPU      0.00s WALL (      48 calls)
     vloc_psi     :      0.05s CPU      0.05s WALL (      48 calls)
     add_vuspsi   :      0.00s CPU      0.00s WALL (      48 calls)

     General routines
     calbec       :      0.00s CPU      0.00s WALL (      48 calls)
     fft          :      0.00s CPU      0.00s WALL (      24 calls)
     ffts         :      0.00s CPU      0.00s WALL (       8 calls)
     fftw         :      0.06s CPU      0.06s WALL (     442 calls)

     Parallel routines
     fft_scatt_xy :      0.01s CPU      0.01s WALL (     474 calls)
     fft_scatt_yz :      0.01s CPU      0.01s WALL (     474 calls)

     PWSCF        :      0.13s CPU      0.13s WALL


   This run was terminated on:  18:13:18  13Aug2019            

=------------------------------------------------------------------------------=
   JOB DONE.
=------------------------------------------------------------------------------=
