### Running on host: assam

     Program PWSCF v.6.4.1 starts on 13Aug2019 at 18:13:21 

     This program is part of the open-source Quantum ESPRESSO suite
     for quantum simulation of materials; please cite
         "P. Giannozzi et al., J. Phys.:Condens. Matter 21 395502 (2009);
         "P. Giannozzi et al., J. Phys.:Condens. Matter 29 465901 (2017);
          URL http://www.quantum-espresso.org", 
     in publications or presentations arising from this work. More details at
     http://www.quantum-espresso.org/quote

     Parallel version (MPI), running on     2 processors

     MPI processes distributed on     1 nodes
     R & G space division:  proc/nbgrp/npool/nimage =       2
     Reading input from scf.Si.kpoints-8x8x8.in

     Current dimensions of program PWSCF are:
     Max number of different atomic species (ntypx) = 10
     Max number of k-points (npk) =  40000
     Max angular momentum in pseudopotentials (lmaxx) =  3

     Subspace diagonalization in iterative solution of the eigenvalue problem:
     a serial algorithm will be used


     Parallelization info
     --------------------
     sticks:   dense  smooth     PW     G-vecs:    dense   smooth      PW
     Min         135     135     48                 1487     1487     322
     Max         136     136     49                 1488     1488     323
     Sum         271     271     97                 2975     2975     645



     bravais-lattice index     =            2
     lattice parameter (alat)  =      10.0000  a.u.
     unit-cell volume          =     250.0000 (a.u.)^3
     number of atoms/cell      =            2
     number of atomic types    =            1
     number of electrons       =         8.00
     number of Kohn-Sham states=            4
     kinetic-energy cutoff     =      20.0000  Ry
     charge density cutoff     =      80.0000  Ry
     convergence threshold     =      1.0E-09
     mixing beta               =       0.7000
     number of iterations used =            8  plain     mixing
     Exchange-correlation      =  SLA  PZ   NOGX NOGC ( 1  1  0  0 0 0)

     celldm(1)=  10.000000  celldm(2)=   0.000000  celldm(3)=   0.000000
     celldm(4)=   0.000000  celldm(5)=   0.000000  celldm(6)=   0.000000

     crystal axes: (cart. coord. in units of alat)
               a(1) = (  -0.500000   0.000000   0.500000 )  
               a(2) = (   0.000000   0.500000   0.500000 )  
               a(3) = (  -0.500000   0.500000   0.000000 )  

     reciprocal axes: (cart. coord. in units 2 pi/alat)
               b(1) = ( -1.000000 -1.000000  1.000000 )  
               b(2) = (  1.000000  1.000000  1.000000 )  
               b(3) = ( -1.000000  1.000000 -1.000000 )  


     PseudoPot. # 1 for Si read from file:
     /home/matic/pw/pseudo/Si.pz-vbc.UPF
     MD5 check sum: 6dfa03ddd5817404712e03e4d12deb78
     Pseudo is Norm-conserving, Zval =  4.0
     Generated by new atomic code, or converted to UPF format
     Using radial grid of  431 points,  2 beta functions with: 
                l(1) =   0
                l(2) =   1

     atomic species   valence    mass     pseudopotential
        Si             4.00    28.08600     Si( 1.00)

     48 Sym. Ops., with inversion, found (24 have fractional translation)



   Cartesian axes

     site n.     atom                  positions (alat units)
         1           Si  tau(   1) = (   0.0000000   0.0000000   0.0000000  )
         2           Si  tau(   2) = (  -0.2500000   0.2500000   0.2500000  )

     number of k points=    60
                       cart. coord. in units 2pi/alat
        k(    1) = (  -0.0625000   0.0625000   0.0625000), wk =   0.0078125
        k(    2) = (  -0.1875000   0.1875000  -0.0625000), wk =   0.0234375
        k(    3) = (  -0.3125000   0.3125000  -0.1875000), wk =   0.0234375
        k(    4) = (  -0.4375000   0.4375000  -0.3125000), wk =   0.0234375
        k(    5) = (   0.4375000  -0.4375000   0.5625000), wk =   0.0234375
        k(    6) = (   0.3125000  -0.3125000   0.4375000), wk =   0.0234375
        k(    7) = (   0.1875000  -0.1875000   0.3125000), wk =   0.0234375
        k(    8) = (   0.0625000  -0.0625000   0.1875000), wk =   0.0234375
        k(    9) = (  -0.0625000   0.3125000   0.0625000), wk =   0.0234375
        k(   10) = (  -0.1875000   0.4375000  -0.0625000), wk =   0.0468750
        k(   11) = (  -0.3125000   0.5625000  -0.1875000), wk =   0.0468750
        k(   12) = (   0.5625000  -0.3125000   0.6875000), wk =   0.0468750
        k(   13) = (   0.4375000  -0.1875000   0.5625000), wk =   0.0468750
        k(   14) = (   0.3125000  -0.0625000   0.4375000), wk =   0.0468750
        k(   15) = (   0.1875000   0.0625000   0.3125000), wk =   0.0468750
        k(   16) = (  -0.0625000   0.5625000   0.0625000), wk =   0.0234375
        k(   17) = (  -0.1875000   0.6875000  -0.0625000), wk =   0.0468750
        k(   18) = (   0.6875000  -0.1875000   0.8125000), wk =   0.0468750
        k(   19) = (   0.5625000  -0.0625000   0.6875000), wk =   0.0468750
        k(   20) = (   0.4375000   0.0625000   0.5625000), wk =   0.0468750
        k(   21) = (   0.3125000   0.1875000   0.4375000), wk =   0.0468750
        k(   22) = (  -0.0625000   0.8125000   0.0625000), wk =   0.0234375
        k(   23) = (   0.8125000  -0.0625000   0.9375000), wk =   0.0468750
        k(   24) = (   0.6875000   0.0625000   0.8125000), wk =   0.0468750
        k(   25) = (   0.5625000   0.1875000   0.6875000), wk =   0.0468750
        k(   26) = (   0.4375000   0.3125000   0.5625000), wk =   0.0468750
        k(   27) = (  -0.0625000  -0.9375000   0.0625000), wk =   0.0234375
        k(   28) = (  -0.1875000  -0.8125000  -0.0625000), wk =   0.0468750
        k(   29) = (  -0.3125000  -0.6875000  -0.1875000), wk =   0.0468750
        k(   30) = (  -0.0625000  -0.6875000   0.0625000), wk =   0.0234375
        k(   31) = (  -0.1875000  -0.5625000  -0.0625000), wk =   0.0468750
        k(   32) = (  -0.0625000  -0.4375000   0.0625000), wk =   0.0234375
        k(   33) = (  -0.1875000   0.1875000   0.1875000), wk =   0.0078125
        k(   34) = (  -0.3125000   0.3125000   0.0625000), wk =   0.0234375
        k(   35) = (  -0.4375000   0.4375000  -0.0625000), wk =   0.0234375
        k(   36) = (   0.4375000  -0.4375000   0.8125000), wk =   0.0234375
        k(   37) = (   0.3125000  -0.3125000   0.6875000), wk =   0.0234375
        k(   38) = (   0.1875000  -0.1875000   0.5625000), wk =   0.0234375
        k(   39) = (  -0.1875000   0.4375000   0.1875000), wk =   0.0234375
        k(   40) = (  -0.3125000   0.5625000   0.0625000), wk =   0.0468750
        k(   41) = (   0.5625000  -0.3125000   0.9375000), wk =   0.0468750
        k(   42) = (   0.4375000  -0.1875000   0.8125000), wk =   0.0468750
        k(   43) = (   0.3125000  -0.0625000   0.6875000), wk =   0.0468750
        k(   44) = (  -0.1875000   0.6875000   0.1875000), wk =   0.0234375
        k(   45) = (   0.6875000  -0.1875000   1.0625000), wk =   0.0468750
        k(   46) = (   0.5625000  -0.0625000   0.9375000), wk =   0.0468750
        k(   47) = (   0.4375000   0.0625000   0.8125000), wk =   0.0468750
        k(   48) = (  -0.1875000  -1.0625000   0.1875000), wk =   0.0234375
        k(   49) = (  -0.3125000  -0.9375000   0.0625000), wk =   0.0468750
        k(   50) = (  -0.1875000  -0.8125000   0.1875000), wk =   0.0234375
        k(   51) = (  -0.3125000   0.3125000   0.3125000), wk =   0.0078125
        k(   52) = (  -0.4375000   0.4375000   0.1875000), wk =   0.0234375
        k(   53) = (   0.4375000  -0.4375000   1.0625000), wk =   0.0234375
        k(   54) = (   0.3125000  -0.3125000   0.9375000), wk =   0.0234375
        k(   55) = (  -0.3125000   0.5625000   0.3125000), wk =   0.0234375
        k(   56) = (   0.5625000  -0.3125000   1.1875000), wk =   0.0468750
        k(   57) = (   0.4375000  -0.1875000   1.0625000), wk =   0.0468750
        k(   58) = (  -0.3125000  -1.1875000   0.3125000), wk =   0.0234375
        k(   59) = (  -0.4375000   0.4375000   0.4375000), wk =   0.0078125
        k(   60) = (   0.4375000  -0.4375000   1.3125000), wk =   0.0234375

     Dense  grid:     2975 G-vectors     FFT dimensions: (  24,  24,  24)

     Estimated max dynamical RAM per process >       2.02 MB

     Estimated total dynamical RAM >       4.05 MB

     Initial potential from superposition of free atoms

     starting charge    7.99901, renormalised to    8.00000
     Starting wfcs are    8 randomized atomic wfcs

     total cpu time spent up to now is        0.2 secs

     Self-consistent Calculation

     iteration #  1     ecut=    20.00 Ry     beta= 0.70
     Davidson diagonalization with overlap
     ethr =  1.00E-02,  avg # of iterations =  2.0

     Threshold (ethr) on eigenvalues was too large:
     Diagonalizing with lowered threshold

     Davidson diagonalization with overlap
     ethr =  8.63E-04,  avg # of iterations =  1.0

     total cpu time spent up to now is        0.7 secs

     total energy              =     -15.83987639 Ry
     Harris-Foulkes estimate   =     -15.86423525 Ry
     estimated scf accuracy    <       0.06806736 Ry

     iteration #  2     ecut=    20.00 Ry     beta= 0.70
     Davidson diagonalization with overlap
     ethr =  8.51E-04,  avg # of iterations =  1.0

     total cpu time spent up to now is        0.9 secs

     total energy              =     -15.84364786 Ry
     Harris-Foulkes estimate   =     -15.84393354 Ry
     estimated scf accuracy    <       0.00216539 Ry

     iteration #  3     ecut=    20.00 Ry     beta= 0.70
     Davidson diagonalization with overlap
     ethr =  2.71E-05,  avg # of iterations =  2.8

     total cpu time spent up to now is        1.2 secs

     total energy              =     -15.84419753 Ry
     Harris-Foulkes estimate   =     -15.84423659 Ry
     estimated scf accuracy    <       0.00008493 Ry

     iteration #  4     ecut=    20.00 Ry     beta= 0.70
     Davidson diagonalization with overlap
     ethr =  1.06E-06,  avg # of iterations =  2.0

     total cpu time spent up to now is        1.5 secs

     total energy              =     -15.84421399 Ry
     Harris-Foulkes estimate   =     -15.84421844 Ry
     estimated scf accuracy    <       0.00000968 Ry

     iteration #  5     ecut=    20.00 Ry     beta= 0.70
     Davidson diagonalization with overlap
     ethr =  1.21E-07,  avg # of iterations =  2.0

     total cpu time spent up to now is        1.8 secs

     total energy              =     -15.84421532 Ry
     Harris-Foulkes estimate   =     -15.84421535 Ry
     estimated scf accuracy    <       0.00000005 Ry

     iteration #  6     ecut=    20.00 Ry     beta= 0.70
     Davidson diagonalization with overlap
     ethr =  6.76E-10,  avg # of iterations =  2.7

     total cpu time spent up to now is        2.1 secs

     total energy              =     -15.84421535 Ry
     Harris-Foulkes estimate   =     -15.84421535 Ry
     estimated scf accuracy    <          1.8E-09 Ry

     iteration #  7     ecut=    20.00 Ry     beta= 0.70
     Davidson diagonalization with overlap
     ethr =  2.19E-11,  avg # of iterations =  1.9

     total cpu time spent up to now is        2.3 secs

     End of self-consistent calculation

          k =-0.0625 0.0625 0.0625 (   357 PWs)   bands (ev):

    -5.5425   6.3564   6.7976   6.7976

          k =-0.1875 0.1875-0.0625 (   367 PWs)   bands (ev):

    -5.2529   4.8108   5.9060   6.6790

          k =-0.3125 0.3125-0.1875 (   373 PWs)   bands (ev):

    -4.5501   2.4308   5.3976   6.1803

          k =-0.4375 0.4375-0.3125 (   374 PWs)   bands (ev):

    -3.5496   0.3803   5.1810   5.7413

          k = 0.4375-0.4375 0.5625 (   380 PWs)   bands (ev):

    -3.0301  -0.4094   5.2463   5.4995

          k = 0.3125-0.3125 0.4375 (   373 PWs)   bands (ev):

    -3.8966   0.9936   5.5116   5.5588

          k = 0.1875-0.1875 0.3125 (   370 PWs)   bands (ev):

    -4.8263   3.2136   5.8002   6.0552

          k = 0.0625-0.0625 0.1875 (   365 PWs)   bands (ev):

    -5.3972   5.6027   6.3197   6.5272

          k =-0.0625 0.3125 0.0625 (   366 PWs)   bands (ev):

    -5.1071   4.7210   5.7062   5.8414

          k =-0.1875 0.4375-0.0625 (   371 PWs)   bands (ev):

    -4.5387   3.1425   4.6542   5.5520

          k =-0.3125 0.5625-0.1875 (   378 PWs)   bands (ev):

    -3.6124   1.1049   4.1660   5.0853

          k = 0.5625-0.3125 0.6875 (   380 PWs)   bands (ev):

    -2.7429  -0.2532   3.8676   4.9766

          k = 0.4375-0.1875 0.5625 (   378 PWs)   bands (ev):

    -3.2710   0.5283   3.7663   5.2976

          k = 0.3125-0.0625 0.4375 (   376 PWs)   bands (ev):

    -4.2680   2.4348   4.0435   5.8637

          k = 0.1875 0.0625 0.3125 (   371 PWs)   bands (ev):

    -4.9658   3.9744   5.2757   6.2786

          k =-0.0625 0.5625 0.0625 (   367 PWs)   bands (ev):

    -4.1065   2.6953   4.4979   4.6312

          k =-0.1875 0.6875-0.0625 (   379 PWs)   bands (ev):

    -3.2886   1.3745   3.6215   4.2425

          k = 0.6875-0.1875 0.8125 (   379 PWs)   bands (ev):

    -2.2854   0.0439   2.6968   4.2100

          k = 0.5625-0.0625 0.6875 (   382 PWs)   bands (ev):

    -2.3550   0.1408   2.2910   4.5929

          k = 0.4375 0.0625 0.5625 (   381 PWs)   bands (ev):

    -3.3521   1.1342   2.9823   5.2449

          k = 0.3125 0.1875 0.4375 (   374 PWs)   bands (ev):

    -4.1418   1.7236   4.8188   5.7599

          k =-0.0625 0.8125 0.0625 (   374 PWs)   bands (ev):

    -2.5831   0.4612   3.7362   3.9899

          k = 0.8125-0.0625 0.9375 (   373 PWs)   bands (ev):

    -1.5861  -0.6011   3.0961   3.7076

          k = 0.6875 0.0625 0.8125 (   382 PWs)   bands (ev):

    -1.6545  -0.4478   2.2657   4.0538

          k = 0.5625 0.1875 0.6875 (   380 PWs)   bands (ev):

    -2.4681  -0.1453   2.9746   4.7182

          k = 0.4375 0.3125 0.5625 (   377 PWs)   bands (ev):

    -3.1399  -0.0574   4.6556   5.3838

          k =-0.0625-0.9375 0.0625 (   379 PWs)   bands (ev):

    -1.6519  -0.6276   3.5857   3.8590

          k =-0.1875-0.8125-0.0625 (   379 PWs)   bands (ev):

    -2.4843   0.3958   3.2758   3.8797

          k =-0.3125-0.6875-0.1875 (   378 PWs)   bands (ev):

    -2.9802   0.5601   3.4100   4.5410

          k =-0.0625-0.6875 0.0625 (   377 PWs)   bands (ev):

    -3.4064   1.5828   4.0391   4.2490

          k =-0.1875-0.5625-0.0625 (   375 PWs)   bands (ev):

    -3.9770   2.2891   4.0949   4.8160

          k =-0.0625-0.4375 0.0625 (   364 PWs)   bands (ev):

    -4.6751   3.7514   5.1121   5.1250

          k =-0.1875 0.1875 0.1875 (   362 PWs)   bands (ev):

    -5.1100   4.0232   6.3166   6.3166

          k =-0.3125 0.3125 0.0625 (   372 PWs)   bands (ev):

    -4.6847   3.1864   4.6484   6.3543

          k =-0.4375 0.4375-0.0625 (   378 PWs)   bands (ev):

    -3.8687   1.7558   3.4630   5.7976

          k = 0.4375-0.4375 0.8125 (   380 PWs)   bands (ev):

    -2.8658   0.0911   3.3464   5.2103

          k = 0.3125-0.3125 0.6875 (   381 PWs)   bands (ev):

    -2.8513   0.0629   3.6896   4.8564

          k = 0.1875-0.1875 0.5625 (   380 PWs)   bands (ev):

    -3.8537   1.7488   4.3498   4.8220

          k =-0.1875 0.4375 0.1875 (   373 PWs)   bands (ev):

    -4.4054   2.4582   5.2722   5.2787

          k =-0.3125 0.5625 0.0625 (   378 PWs)   bands (ev):

    -3.7225   1.7183   3.5238   5.0704

          k = 0.5625-0.3125 0.9375 (   381 PWs)   bands (ev):

    -2.7376   0.5619   2.6389   4.4239

          k = 0.4375-0.1875 0.8125 (   380 PWs)   bands (ev):

    -2.1833  -0.1379   2.6712   4.0678

          k = 0.3125-0.0625 0.6875 (   381 PWs)   bands (ev):

    -3.0601   1.0029   3.1134   4.2729

          k =-0.1875 0.6875 0.1875 (   380 PWs)   bands (ev):

    -3.1813   1.0389   3.5023   4.4631

          k = 0.6875-0.1875 1.0625 (   384 PWs)   bands (ev):

    -2.2998   0.2414   2.8244   3.6666

          k = 0.5625-0.0625 0.9375 (   385 PWs)   bands (ev):

    -1.3991  -0.5574   2.4440   3.0967

          k = 0.4375 0.0625 0.8125 (   382 PWs)   bands (ev):

    -2.0599   0.0044   2.4594   3.6314

          k =-0.1875-1.0625 0.1875 (   377 PWs)   bands (ev):

    -1.5909  -0.5574   2.5663   4.0916

          k =-0.3125-0.9375 0.0625 (   381 PWs)   bands (ev):

    -1.4829  -0.5711   2.6709   3.3540

          k =-0.1875-0.8125 0.1875 (   378 PWs)   bands (ev):

    -2.4084   0.2656   2.8810   4.2167

          k =-0.3125 0.3125 0.3125 (   365 PWs)   bands (ev):

    -4.2836   1.6629   5.8770   5.8770

          k =-0.4375 0.4375 0.1875 (   374 PWs)   bands (ev):

    -3.7577   1.0681   4.2948   5.7857

          k = 0.4375-0.4375 1.0625 (   382 PWs)   bands (ev):

    -2.8849   0.6016   2.5537   5.1378

          k = 0.3125-0.3125 0.9375 (   380 PWs)   bands (ev):

    -1.9678  -0.2057   2.1449   4.5350

          k =-0.3125 0.5625 0.3125 (   377 PWs)   bands (ev):

    -3.4061   0.4533   4.6947   5.1553

          k = 0.5625-0.3125 1.1875 (   379 PWs)   bands (ev):

    -2.7194   0.1220   3.2303   4.6085

          k = 0.4375-0.1875 1.0625 (   383 PWs)   bands (ev):

    -1.8214  -0.2506   2.2450   3.8079

          k =-0.3125-1.1875 0.3125 (   382 PWs)   bands (ev):

    -2.3173  -0.1555   2.7620   4.6443

          k =-0.4375 0.4375 0.4375 (   374 PWs)   bands (ev):

    -3.2824  -0.1448   5.6445   5.6445

          k = 0.4375-0.4375 1.3125 (   379 PWs)   bands (ev):

    -2.8872  -0.3227   4.3401   5.3411

     highest occupied level (ev):     6.7976

!    total energy              =     -15.84421535 Ry
     Harris-Foulkes estimate   =     -15.84421535 Ry
     estimated scf accuracy    <          7.5E-12 Ry

     The total energy is the sum of the following terms:

     one-electron contribution =       5.24647799 Ry
     hartree contribution      =       1.02844958 Ry
     xc contribution           =      -4.88138914 Ry
     ewald contribution        =     -17.23775378 Ry

     convergence has been achieved in   7 iterations

     Writing output data file pwscf.save/

     init_run     :      0.19s CPU      0.20s WALL (       1 calls)
     electrons    :      2.00s CPU      2.12s WALL (       1 calls)

     Called by init_run:
     wfcinit      :      0.18s CPU      0.18s WALL (       1 calls)
     potinit      :      0.00s CPU      0.00s WALL (       1 calls)
     hinit0       :      0.01s CPU      0.01s WALL (       1 calls)

     Called by electrons:
     c_bands      :      1.68s CPU      1.77s WALL (       8 calls)
     sum_band     :      0.30s CPU      0.33s WALL (       8 calls)
     v_of_rho     :      0.01s CPU      0.01s WALL (       8 calls)
     mix_rho      :      0.00s CPU      0.00s WALL (       8 calls)

     Called by c_bands:
     init_us_2    :      0.05s CPU      0.05s WALL (    1020 calls)
     cegterg      :      1.64s CPU      1.73s WALL (     480 calls)

     Called by sum_band:

     Called by *egterg:
     h_psi        :      1.64s CPU      1.72s WALL (    1468 calls)
     g_psi        :      0.01s CPU      0.01s WALL (     928 calls)
     cdiaghg      :      0.06s CPU      0.07s WALL (    1348 calls)

     Called by h_psi:
     h_psi:pot    :      1.63s CPU      1.72s WALL (    1468 calls)
     h_psi:calbec :      0.03s CPU      0.03s WALL (    1468 calls)
     vloc_psi     :      1.58s CPU      1.66s WALL (    1468 calls)
     add_vuspsi   :      0.02s CPU      0.02s WALL (    1468 calls)

     General routines
     calbec       :      0.02s CPU      0.03s WALL (    1468 calls)
     fft          :      0.00s CPU      0.00s WALL (      24 calls)
     ffts         :      0.00s CPU      0.00s WALL (       8 calls)
     fftw         :      1.72s CPU      1.82s WALL (   13088 calls)

     Parallel routines
     fft_scatt_xy :      0.17s CPU      0.18s WALL (   13120 calls)
     fft_scatt_yz :      0.22s CPU      0.23s WALL (   13120 calls)

     PWSCF        :      2.23s CPU      2.35s WALL


   This run was terminated on:  18:13:24  13Aug2019            

=------------------------------------------------------------------------------=
   JOB DONE.
=------------------------------------------------------------------------------=
