### Running on host: sh02-ln01.stanford.edu

     Program PWSCF v.6.5 starts on 31May2020 at  1:29:54 

     This program is part of the open-source Quantum ESPRESSO suite
     for quantum simulation of materials; please cite
         "P. Giannozzi et al., J. Phys.:Condens. Matter 21 395502 (2009);
         "P. Giannozzi et al., J. Phys.:Condens. Matter 29 465901 (2017);
          URL http://www.quantum-espresso.org", 
     in publications or presentations arising from this work. More details at
     http://www.quantum-espresso.org/quote

     Parallel version (MPI), running on     1 processors

     MPI processes distributed on     1 nodes
     Reading input from pw.Si.scf.ecutwfc-28.in

     Current dimensions of program PWSCF are:
     Max number of different atomic species (ntypx) = 10
     Max number of k-points (npk) =  40000
     Max angular momentum in pseudopotentials (lmaxx) =  3

     Subspace diagonalization in iterative solution of the eigenvalue problem:
     a serial algorithm will be used

 
     G-vector sticks info
     --------------------
     sticks:   dense  smooth     PW     G-vecs:    dense   smooth      PW
     Sum         397     397    127                 5209     5209     965
 


     bravais-lattice index     =            2
     lattice parameter (alat)  =      10.2000  a.u.
     unit-cell volume          =     265.3020 (a.u.)^3
     number of atoms/cell      =            2
     number of atomic types    =            1
     number of electrons       =         8.00
     number of Kohn-Sham states=            4
     kinetic-energy cutoff     =      28.0000  Ry
     charge density cutoff     =     112.0000  Ry
     convergence threshold     =      1.0E-06
     mixing beta               =       0.7000
     number of iterations used =            8  plain     mixing
     Exchange-correlation= SLA PZ NOGX NOGC
                           (   1   1   0   0   0   0   0)

     celldm(1)=  10.200000  celldm(2)=   0.000000  celldm(3)=   0.000000
     celldm(4)=   0.000000  celldm(5)=   0.000000  celldm(6)=   0.000000

     crystal axes: (cart. coord. in units of alat)
               a(1) = (  -0.500000   0.000000   0.500000 )  
               a(2) = (   0.000000   0.500000   0.500000 )  
               a(3) = (  -0.500000   0.500000   0.000000 )  

     reciprocal axes: (cart. coord. in units 2 pi/alat)
               b(1) = ( -1.000000 -1.000000  1.000000 )  
               b(2) = (  1.000000  1.000000  1.000000 )  
               b(3) = ( -1.000000  1.000000 -1.000000 )  


     PseudoPot. # 1 for Si read from file:
     /home/groups/saraswat/qe-6.5/pseudo/Si.pz-vbc.UPF
     MD5 check sum: 9f25e6ff280f3123e9b3a84715b2e9c9
     Pseudo is Norm-conserving, Zval =  4.0
     Generated by new atomic code, or converted to UPF format
     Using radial grid of  431 points,  2 beta functions with: 
                l(1) =   0
                l(2) =   1

     atomic species   valence    mass     pseudopotential
        Si             4.00    28.08600     Si( 1.00)

     48 Sym. Ops., with inversion, found (24 have fractional translation)



   Cartesian axes

     site n.     atom                  positions (alat units)
         1           Si  tau(   1) = (   0.0000000   0.0000000   0.0000000  )
         2           Si  tau(   2) = (   0.2500000   0.2500000   0.2500000  )

     number of k points=    10
                       cart. coord. in units 2pi/alat
        k(    1) = (  -0.1250000   0.1250000   0.1250000), wk =   0.0625000
        k(    2) = (  -0.3750000   0.3750000  -0.1250000), wk =   0.1875000
        k(    3) = (   0.3750000  -0.3750000   0.6250000), wk =   0.1875000
        k(    4) = (   0.1250000  -0.1250000   0.3750000), wk =   0.1875000
        k(    5) = (  -0.1250000   0.6250000   0.1250000), wk =   0.1875000
        k(    6) = (   0.6250000  -0.1250000   0.8750000), wk =   0.3750000
        k(    7) = (   0.3750000   0.1250000   0.6250000), wk =   0.3750000
        k(    8) = (  -0.1250000  -0.8750000   0.1250000), wk =   0.1875000
        k(    9) = (  -0.3750000   0.3750000   0.3750000), wk =   0.0625000
        k(   10) = (   0.3750000  -0.3750000   1.1250000), wk =   0.1875000

     Dense  grid:     5209 G-vectors     FFT dimensions: (  32,  32,  32)

     Estimated max dynamical RAM per process >       5.40 MB

     Initial potential from superposition of free atoms

     starting charge    7.99901, renormalised to    8.00000
     Starting wfcs are    8 randomized atomic wfcs

     total cpu time spent up to now is        0.2 secs

     Self-consistent Calculation

     iteration #  1     ecut=    28.00 Ry     beta= 0.70
     Davidson diagonalization with overlap
     ethr =  1.00E-02,  avg # of iterations =  2.0

     Threshold (ethr) on eigenvalues was too large:
     Diagonalizing with lowered threshold

     Davidson diagonalization with overlap
     ethr =  7.94E-04,  avg # of iterations =  1.0

     total cpu time spent up to now is        0.4 secs

     total energy              =     -15.84831543 Ry
     Harris-Foulkes estimate   =     -15.86935654 Ry
     estimated scf accuracy    <       0.06198246 Ry

     iteration #  2     ecut=    28.00 Ry     beta= 0.70
     Davidson diagonalization with overlap
     ethr =  7.75E-04,  avg # of iterations =  1.0

     total cpu time spent up to now is        0.5 secs

     total energy              =     -15.85141632 Ry
     Harris-Foulkes estimate   =     -15.85171149 Ry
     estimated scf accuracy    <       0.00215901 Ry

     iteration #  3     ecut=    28.00 Ry     beta= 0.70
     Davidson diagonalization with overlap
     ethr =  2.70E-05,  avg # of iterations =  2.5

     total cpu time spent up to now is        0.6 secs

     total energy              =     -15.85186317 Ry
     Harris-Foulkes estimate   =     -15.85189532 Ry
     estimated scf accuracy    <       0.00007333 Ry

     iteration #  4     ecut=    28.00 Ry     beta= 0.70
     Davidson diagonalization with overlap
     ethr =  9.17E-07,  avg # of iterations =  2.2

     total cpu time spent up to now is        0.7 secs

     total energy              =     -15.85188143 Ry
     Harris-Foulkes estimate   =     -15.85188508 Ry
     estimated scf accuracy    <       0.00000786 Ry

     iteration #  5     ecut=    28.00 Ry     beta= 0.70
     Davidson diagonalization with overlap
     ethr =  9.82E-08,  avg # of iterations =  2.0

     total cpu time spent up to now is        0.8 secs

     End of self-consistent calculation

          k =-0.1250 0.1250 0.1250 (   652 PWs)   bands (ev):

    -5.6129   4.6316   5.9387   5.9387

          k =-0.3750 0.3750-0.1250 (   650 PWs)   bands (ev):

    -4.5476   1.5822   3.8805   5.4493

          k = 0.3750-0.3750 0.6250 (   663 PWs)   bands (ev):

    -3.3451  -0.5907   3.9231   4.6450

          k = 0.1250-0.1250 0.3750 (   662 PWs)   bands (ev):

    -5.0664   3.0057   4.8890   4.9764

          k =-0.1250 0.6250 0.1250 (   664 PWs)   bands (ev):

    -3.9979   1.2996   3.5076   3.9835

          k = 0.6250-0.1250 0.8750 (   669 PWs)   bands (ev):

    -2.2821  -0.7122   2.0727   3.2036

          k = 0.3750 0.1250 0.6250 (   663 PWs)   bands (ev):

    -3.5597   0.3659   2.8479   4.2647

          k =-0.1250-0.8750 0.1250 (   666 PWs)   bands (ev):

    -2.4714  -0.6036   2.7168   3.5003

          k =-0.3750 0.3750 0.3750 (   658 PWs)   bands (ev):

    -4.0919   0.2245   5.1306   5.1306

          k = 0.3750-0.3750 1.1250 (   674 PWs)   bands (ev):

    -2.8338  -0.4465   2.1542   4.3133

     highest occupied level (ev):     5.9387

!    total energy              =     -15.85188268 Ry
     Harris-Foulkes estimate   =     -15.85188273 Ry
     estimated scf accuracy    <       0.00000010 Ry

     The total energy is the sum of the following terms:

     one-electron contribution =       4.78639351 Ry
     hartree contribution      =       1.07858402 Ry
     xc contribution           =      -4.81710157 Ry
     ewald contribution        =     -16.89975863 Ry

     convergence has been achieved in   5 iterations

     Writing output data file /scratch/groups/saraswat/aravind2/qe/silicon.save/
 
     init_run     :      0.11s CPU      0.13s WALL (       1 calls)
     electrons    :      0.57s CPU      0.60s WALL (       1 calls)

     Called by init_run:
     wfcinit      :      0.08s CPU      0.08s WALL (       1 calls)
     potinit      :      0.01s CPU      0.01s WALL (       1 calls)
     hinit0       :      0.02s CPU      0.02s WALL (       1 calls)

     Called by electrons:
     c_bands      :      0.45s CPU      0.46s WALL (       6 calls)
     sum_band     :      0.10s CPU      0.10s WALL (       6 calls)
     v_of_rho     :      0.01s CPU      0.01s WALL (       6 calls)
     mix_rho      :      0.00s CPU      0.00s WALL (       6 calls)

     Called by c_bands:
     init_us_2    :      0.01s CPU      0.01s WALL (     130 calls)
     cegterg      :      0.44s CPU      0.45s WALL (      60 calls)

     Called by sum_band:

     Called by *egterg:
     h_psi        :      0.48s CPU      0.49s WALL (     177 calls)
     g_psi        :      0.00s CPU      0.00s WALL (     107 calls)
     cdiaghg      :      0.01s CPU      0.01s WALL (     157 calls)

     Called by h_psi:
     h_psi:calbec :      0.00s CPU      0.00s WALL (     177 calls)
     vloc_psi     :      0.47s CPU      0.48s WALL (     177 calls)
     add_vuspsi   :      0.00s CPU      0.00s WALL (     177 calls)

     General routines
     calbec       :      0.00s CPU      0.00s WALL (     177 calls)
     fft          :      0.01s CPU      0.01s WALL (      18 calls)
     ffts         :      0.00s CPU      0.00s WALL (       6 calls)
     fftw         :      0.47s CPU      0.48s WALL (    1658 calls)
 
     Parallel routines
 
     PWSCF        :      0.76s CPU      1.07s WALL

 
   This run was terminated on:   1:29:55  31May2020            

=------------------------------------------------------------------------------=
   JOB DONE.
=------------------------------------------------------------------------------=
