### Running on host: sh02-ln01.stanford.edu

     Program PWSCF v.6.5 starts on 31May2020 at  1:29:52 

     This program is part of the open-source Quantum ESPRESSO suite
     for quantum simulation of materials; please cite
         "P. Giannozzi et al., J. Phys.:Condens. Matter 21 395502 (2009);
         "P. Giannozzi et al., J. Phys.:Condens. Matter 29 465901 (2017);
          URL http://www.quantum-espresso.org", 
     in publications or presentations arising from this work. More details at
     http://www.quantum-espresso.org/quote

     Parallel version (MPI), running on     1 processors

     MPI processes distributed on     1 nodes
     Reading input from pw.Si.scf.ecutwfc-20.in

     Current dimensions of program PWSCF are:
     Max number of different atomic species (ntypx) = 10
     Max number of k-points (npk) =  40000
     Max angular momentum in pseudopotentials (lmaxx) =  3

     Subspace diagonalization in iterative solution of the eigenvalue problem:
     a serial algorithm will be used

 
     G-vector sticks info
     --------------------
     sticks:   dense  smooth     PW     G-vecs:    dense   smooth      PW
     Sum         283     283     97                 3143     3143     645
 


     bravais-lattice index     =            2
     lattice parameter (alat)  =      10.2000  a.u.
     unit-cell volume          =     265.3020 (a.u.)^3
     number of atoms/cell      =            2
     number of atomic types    =            1
     number of electrons       =         8.00
     number of Kohn-Sham states=            4
     kinetic-energy cutoff     =      20.0000  Ry
     charge density cutoff     =      80.0000  Ry
     convergence threshold     =      1.0E-06
     mixing beta               =       0.7000
     number of iterations used =            8  plain     mixing
     Exchange-correlation= SLA PZ NOGX NOGC
                           (   1   1   0   0   0   0   0)

     celldm(1)=  10.200000  celldm(2)=   0.000000  celldm(3)=   0.000000
     celldm(4)=   0.000000  celldm(5)=   0.000000  celldm(6)=   0.000000

     crystal axes: (cart. coord. in units of alat)
               a(1) = (  -0.500000   0.000000   0.500000 )  
               a(2) = (   0.000000   0.500000   0.500000 )  
               a(3) = (  -0.500000   0.500000   0.000000 )  

     reciprocal axes: (cart. coord. in units 2 pi/alat)
               b(1) = ( -1.000000 -1.000000  1.000000 )  
               b(2) = (  1.000000  1.000000  1.000000 )  
               b(3) = ( -1.000000  1.000000 -1.000000 )  


     PseudoPot. # 1 for Si read from file:
     /home/groups/saraswat/qe-6.5/pseudo/Si.pz-vbc.UPF
     MD5 check sum: 9f25e6ff280f3123e9b3a84715b2e9c9
     Pseudo is Norm-conserving, Zval =  4.0
     Generated by new atomic code, or converted to UPF format
     Using radial grid of  431 points,  2 beta functions with: 
                l(1) =   0
                l(2) =   1

     atomic species   valence    mass     pseudopotential
        Si             4.00    28.08600     Si( 1.00)

     48 Sym. Ops., with inversion, found (24 have fractional translation)



   Cartesian axes

     site n.     atom                  positions (alat units)
         1           Si  tau(   1) = (   0.0000000   0.0000000   0.0000000  )
         2           Si  tau(   2) = (   0.2500000   0.2500000   0.2500000  )

     number of k points=    10
                       cart. coord. in units 2pi/alat
        k(    1) = (  -0.1250000   0.1250000   0.1250000), wk =   0.0625000
        k(    2) = (  -0.3750000   0.3750000  -0.1250000), wk =   0.1875000
        k(    3) = (   0.3750000  -0.3750000   0.6250000), wk =   0.1875000
        k(    4) = (   0.1250000  -0.1250000   0.3750000), wk =   0.1875000
        k(    5) = (  -0.1250000   0.6250000   0.1250000), wk =   0.1875000
        k(    6) = (   0.6250000  -0.1250000   0.8750000), wk =   0.3750000
        k(    7) = (   0.3750000   0.1250000   0.6250000), wk =   0.3750000
        k(    8) = (  -0.1250000  -0.8750000   0.1250000), wk =   0.1875000
        k(    9) = (  -0.3750000   0.3750000   0.3750000), wk =   0.0625000
        k(   10) = (   0.3750000  -0.3750000   1.1250000), wk =   0.1875000

     Dense  grid:     3143 G-vectors     FFT dimensions: (  24,  24,  24)

     Estimated max dynamical RAM per process >       2.88 MB

     Initial potential from superposition of free atoms

     starting charge    7.99901, renormalised to    8.00000
     Starting wfcs are    8 randomized atomic wfcs

     total cpu time spent up to now is        0.2 secs

     Self-consistent Calculation

     iteration #  1     ecut=    20.00 Ry     beta= 0.70
     Davidson diagonalization with overlap
     ethr =  1.00E-02,  avg # of iterations =  2.0

     Threshold (ethr) on eigenvalues was too large:
     Diagonalizing with lowered threshold

     Davidson diagonalization with overlap
     ethr =  7.81E-04,  avg # of iterations =  1.0

     total cpu time spent up to now is        0.3 secs

     total energy              =     -15.84399581 Ry
     Harris-Foulkes estimate   =     -15.86501391 Ry
     estimated scf accuracy    <       0.06159925 Ry

     iteration #  2     ecut=    20.00 Ry     beta= 0.70
     Davidson diagonalization with overlap
     ethr =  7.70E-04,  avg # of iterations =  1.0

     total cpu time spent up to now is        0.3 secs

     total energy              =     -15.84708711 Ry
     Harris-Foulkes estimate   =     -15.84738950 Ry
     estimated scf accuracy    <       0.00215118 Ry

     iteration #  3     ecut=    20.00 Ry     beta= 0.70
     Davidson diagonalization with overlap
     ethr =  2.69E-05,  avg # of iterations =  2.5

     total cpu time spent up to now is        0.4 secs

     total energy              =     -15.84752817 Ry
     Harris-Foulkes estimate   =     -15.84756061 Ry
     estimated scf accuracy    <       0.00007184 Ry

     iteration #  4     ecut=    20.00 Ry     beta= 0.70
     Davidson diagonalization with overlap
     ethr =  8.98E-07,  avg # of iterations =  2.3

     total cpu time spent up to now is        0.4 secs

     total energy              =     -15.84754484 Ry
     Harris-Foulkes estimate   =     -15.84754808 Ry
     estimated scf accuracy    <       0.00000701 Ry

     iteration #  5     ecut=    20.00 Ry     beta= 0.70
     Davidson diagonalization with overlap
     ethr =  8.77E-08,  avg # of iterations =  2.0

     total cpu time spent up to now is        0.5 secs

     End of self-consistent calculation

          k =-0.1250 0.1250 0.1250 (   390 PWs)   bands (ev):

    -5.6074   4.6419   5.9524   5.9524

          k =-0.3750 0.3750-0.1250 (   398 PWs)   bands (ev):

    -4.5431   1.5872   3.8881   5.4603

          k = 0.3750-0.3750 0.6250 (   399 PWs)   bands (ev):

    -3.3402  -0.5874   3.9304   4.6528

          k = 0.1250-0.1250 0.3750 (   394 PWs)   bands (ev):

    -5.0620   3.0135   4.8980   4.9873

          k =-0.1250 0.6250 0.1250 (   406 PWs)   bands (ev):

    -3.9943   1.3049   3.5137   3.9901

          k = 0.6250-0.1250 0.8750 (   404 PWs)   bands (ev):

    -2.2782  -0.7076   2.0770   3.2091

          k = 0.3750 0.1250 0.6250 (   402 PWs)   bands (ev):

    -3.5558   0.3702   2.8535   4.2722

          k =-0.1250-0.8750 0.1250 (   407 PWs)   bands (ev):

    -2.4679  -0.5989   2.7214   3.5053

          k =-0.3750 0.3750 0.3750 (   407 PWs)   bands (ev):

    -4.0879   0.2281   5.1397   5.1397

          k = 0.3750-0.3750 1.1250 (   398 PWs)   bands (ev):

    -2.8291  -0.4422   2.1589   4.3204

     highest occupied level (ev):     5.9524

!    total energy              =     -15.84754590 Ry
     Harris-Foulkes estimate   =     -15.84754594 Ry
     estimated scf accuracy    <       0.00000007 Ry

     The total energy is the sum of the following terms:

     one-electron contribution =       4.79072584 Ry
     hartree contribution      =       1.07730965 Ry
     xc contribution           =      -4.81582280 Ry
     ewald contribution        =     -16.89975859 Ry

     convergence has been achieved in   5 iterations

     Writing output data file /scratch/groups/saraswat/aravind2/qe/silicon.save/
 
     init_run     :      0.07s CPU      0.09s WALL (       1 calls)
     electrons    :      0.32s CPU      0.37s WALL (       1 calls)

     Called by init_run:
     wfcinit      :      0.05s CPU      0.05s WALL (       1 calls)
     potinit      :      0.00s CPU      0.00s WALL (       1 calls)
     hinit0       :      0.02s CPU      0.02s WALL (       1 calls)

     Called by electrons:
     c_bands      :      0.25s CPU      0.26s WALL (       6 calls)
     sum_band     :      0.05s CPU      0.06s WALL (       6 calls)
     v_of_rho     :      0.01s CPU      0.01s WALL (       6 calls)
     mix_rho      :      0.00s CPU      0.00s WALL (       6 calls)

     Called by c_bands:
     init_us_2    :      0.01s CPU      0.01s WALL (     130 calls)
     cegterg      :      0.24s CPU      0.25s WALL (      60 calls)

     Called by sum_band:

     Called by *egterg:
     h_psi        :      0.27s CPU      0.28s WALL (     178 calls)
     g_psi        :      0.00s CPU      0.00s WALL (     108 calls)
     cdiaghg      :      0.01s CPU      0.01s WALL (     158 calls)

     Called by h_psi:
     h_psi:calbec :      0.00s CPU      0.00s WALL (     178 calls)
     vloc_psi     :      0.26s CPU      0.27s WALL (     178 calls)
     add_vuspsi   :      0.00s CPU      0.00s WALL (     178 calls)

     General routines
     calbec       :      0.00s CPU      0.00s WALL (     178 calls)
     fft          :      0.00s CPU      0.01s WALL (      18 calls)
     ffts         :      0.00s CPU      0.00s WALL (       6 calls)
     fftw         :      0.27s CPU      0.28s WALL (    1646 calls)
 
     Parallel routines
 
     PWSCF        :      0.47s CPU      0.80s WALL

 
   This run was terminated on:   1:29:52  31May2020            

=------------------------------------------------------------------------------=
   JOB DONE.
=------------------------------------------------------------------------------=
