
     Program BANDS v.6.5 starts on 30May2020 at 16:57: 1 

     This program is part of the open-source Quantum ESPRESSO suite
     for quantum simulation of materials; please cite
         "P. Giannozzi et al., J. Phys.:Condens. Matter 21 395502 (2009);
         "P. Giannozzi et al., J. Phys.:Condens. Matter 29 465901 (2017);
          URL http://www.quantum-espresso.org", 
     in publications or presentations arising from this work. More details at
     http://www.quantum-espresso.org/quote

     Parallel version (MPI), running on     1 processors

     MPI processes distributed on     1 nodes

     Reading xml data from directory:

     /scratch/groups/saraswat/aravind2/qe/graphene/Graphene_1x1_PBE.save/

     IMPORTANT: XC functional enforced from input :
     Exchange-correlation= PBE
                           (   1   4   3   4   0   0   0)
     Any further DFT definition will be discarded
     Please, verify this is what you really want

               file C.pbe-rrkjus.UPF: wavefunction(s)  2S 2P renormalized
 
     G-vector sticks info
     --------------------
     sticks:   dense  smooth     PW     G-vecs:    dense   smooth      PW
     Sum         301     121     37                12531     3147     647
 

     negative rho (up, down):  3.199E-06 0.000E+00
     Reading collected, re-writing distributed wavefunctions
     high-symmetry point:  0.0000 0.0000 0.0000   x coordinate   0.0000
     high-symmetry point:  0.3333 0.5774 0.0000   x coordinate   0.6667
     high-symmetry point:  0.0000 0.5774 0.0000   x coordinate   1.0000
     high-symmetry point:  0.0000 0.0000 0.0000   x coordinate   1.5774

     Plottable bands (eV) written to file graphene.bands.dat.gnu
     Bands written to file graphene.bands.dat

 **************************************************************************

                    xk=(   0.00000,   0.00000,   0.00000  )

     point group D_6h(6/mmm)
     there are 12 classes
     the character table:

       E     2C6   2C3   C2    3C2'  3C2'' i     2S3   2S6   s_h   3s_d  3s_v 
A_1g   1.00  1.00  1.00  1.00  1.00  1.00  1.00  1.00  1.00  1.00  1.00  1.00
A_2g   1.00  1.00  1.00  1.00 -1.00 -1.00  1.00  1.00  1.00  1.00 -1.00 -1.00
B_1g   1.00 -1.00  1.00 -1.00  1.00 -1.00  1.00 -1.00  1.00 -1.00  1.00 -1.00
B_2g   1.00 -1.00  1.00 -1.00 -1.00  1.00  1.00 -1.00  1.00 -1.00 -1.00  1.00
E_1g   2.00  1.00 -1.00 -2.00  0.00  0.00  2.00  1.00 -1.00 -2.00  0.00  0.00
E_2g   2.00 -1.00 -1.00  2.00  0.00  0.00  2.00 -1.00 -1.00  2.00  0.00  0.00
A_1u   1.00  1.00  1.00  1.00  1.00  1.00 -1.00 -1.00 -1.00 -1.00 -1.00 -1.00
A_2u   1.00  1.00  1.00  1.00 -1.00 -1.00 -1.00 -1.00 -1.00 -1.00  1.00  1.00
B_1u   1.00 -1.00  1.00 -1.00  1.00 -1.00 -1.00  1.00 -1.00  1.00 -1.00  1.00
B_2u   1.00 -1.00  1.00 -1.00 -1.00  1.00 -1.00  1.00 -1.00  1.00  1.00 -1.00
E_1u   2.00  1.00 -1.00 -2.00  0.00  0.00 -2.00 -1.00  1.00  2.00  0.00  0.00
E_2u   2.00 -1.00 -1.00  2.00  0.00  0.00 -2.00  1.00  1.00 -2.00  0.00  0.00

     the symmetry operations in each class and the name of the first element:

     E        1
                                                                 
     2C6      5    6
                                                                 
     2C3      7    8
                                                                 
     C2       2
                                                                 
     3C2'     4   12   11
                                                                 
     3C2''    3    9   10
                                                                 
     i       13
                                                                 
     2S3     17   18
                                                                 
     2S6     19   20
                                                                 
     s_h     14
                                                                 
     3s_d    16   24   23
                                                                 
     3s_v    15   21   22
                                                                 

     Band symmetry, D_6h(6/mmm) point group:

     e(  1 -  1) =    -18.66790  eV     1   --> A_1g           
     e(  2 -  2) =     -6.72120  eV     1   --> A_2u           
     e(  3 -  4) =     -2.15103  eV     2   --> E_2g           
     e(  5 -  5) =      3.76596  eV     1   --> A_1g           
     e(  6 -  6) =      7.13314  eV     1   --> A_2u           
     e(  7 -  8) =      9.25489  eV     2   --> E_1u           

 **************************************************************************

 **************************************************************************

                    xk=(   0.01667,   0.02887,   0.00000  )

     point group C_2v (mm2) 
     there are  4 classes
     the character table:

       E     C2    s_v   s_v' 
A_1    1.00  1.00  1.00  1.00
A_2    1.00  1.00 -1.00 -1.00
B_1    1.00 -1.00  1.00 -1.00
B_2    1.00 -1.00 -1.00  1.00

     the symmetry operations in each class and the name of the first element:

     E        1
                                                                 
     C2       2
                                                                 
     s_v      3
                                                                 
     s_v'     4
                                                                 

     Band symmetry, C_2v (mm2)  point group:

     e(  1 -  1) =    -18.64825  eV     1   --> A_1  D_1  S_1  
     e(  2 -  2) =     -6.69803  eV     1   --> B_2  D_4  S_4  
     e(  3 -  3) =     -2.24905  eV     1   --> B_1  D_3  S_3  
     e(  4 -  4) =     -2.19604  eV     1   --> A_1  D_1  S_1  
     e(  5 -  5) =      3.79280  eV     1   --> A_1  D_1  S_1  
     e(  6 -  6) =      7.15875  eV     1   --> B_2  D_4  S_4  
     e(  7 -  7) =      9.24744  eV     1   --> A_1  D_1  S_1  
     e(  8 -  8) =      9.33868  eV     1   --> B_1  D_3  S_3  

 **************************************************************************

 **************************************************************************

                    xk=(   0.03333,   0.05774,   0.00000  )

     Band symmetry, C_2v (mm2)  point group:

     e(  1 -  1) =    -18.58927  eV     1   --> A_1  D_1  S_1  
     e(  2 -  2) =     -6.63066  eV     1   --> B_2  D_4  S_4  
     e(  3 -  3) =     -2.48960  eV     1   --> B_1  D_3  S_3  
     e(  4 -  4) =     -2.33309  eV     1   --> A_1  D_1  S_1  
     e(  5 -  5) =      3.87333  eV     1   --> A_1  D_1  S_1  
     e(  6 -  6) =      7.23478  eV     1   --> B_2  D_4  S_4  
     e(  7 -  7) =      9.25656  eV     1   --> A_1  D_1  S_1  
     e(  8 -  8) =      9.54481  eV     1   --> A_1  D_1  S_1  

 **************************************************************************

 **************************************************************************

                    xk=(   0.05000,   0.08660,   0.00000  )

     Band symmetry, C_2v (mm2)  point group:

     e(  1 -  1) =    -18.49120  eV     1   --> A_1  D_1  S_1  
     e(  2 -  2) =     -6.52156  eV     1   --> B_2  D_4  S_4  
     e(  3 -  3) =     -2.85641  eV     1   --> B_1  D_3  S_3  
     e(  4 -  4) =     -2.55914  eV     1   --> A_1  D_1  S_1  
     e(  5 -  5) =      4.00756  eV     1   --> A_1  D_1  S_1  
     e(  6 -  6) =      7.36042  eV     1   --> B_2  D_4  S_4  
     e(  7 -  7) =      9.30476  eV     1   --> A_1  D_1  S_1  
     e(  8 -  8) =      9.69414  eV     1   --> A_1  D_1  S_1  

 **************************************************************************

 **************************************************************************

                    xk=(   0.06667,   0.11547,   0.00000  )

     Band symmetry, C_2v (mm2)  point group:

     e(  1 -  1) =    -18.35334  eV     1   --> A_1  D_1  S_1  
     e(  2 -  2) =     -6.35741  eV     1   --> B_2  D_4  S_4  
     e(  3 -  3) =     -3.31055  eV     1   --> B_1  D_3  S_3  
     e(  4 -  4) =     -2.84238  eV     1   --> A_1  D_1  S_1  
     e(  5 -  5) =      4.19558  eV     1   --> A_1  D_1  S_1  
     e(  6 -  6) =      7.53941  eV     1   --> B_2  D_4  S_4  
     e(  7 -  7) =      9.40188  eV     1   --> A_1  D_1  S_1  
     e(  8 -  8) =      9.89123  eV     1   --> A_1  D_1  S_1  

 **************************************************************************

 **************************************************************************

                    xk=(   0.08333,   0.14434,   0.00000  )

     Band symmetry, C_2v (mm2)  point group:

     e(  1 -  1) =    -18.17649  eV     1   --> A_1  D_1  S_1  
     e(  2 -  2) =     -6.14717  eV     1   --> B_2  D_4  S_4  
     e(  3 -  3) =     -3.84254  eV     1   --> B_1  D_3  S_3  
     e(  4 -  4) =     -3.18653  eV     1   --> A_1  D_1  S_1  
     e(  5 -  5) =      4.43736  eV     1   --> A_1  D_1  S_1  
     e(  6 -  6) =      7.76866  eV     1   --> B_2  D_4  S_4  
     e(  7 -  7) =      9.54547  eV     1   --> A_1  D_1  S_1  
     e(  8 -  8) =     10.13411  eV     1   --> A_1  D_1  S_1  

 **************************************************************************

 **************************************************************************

                    xk=(   0.10000,   0.17321,   0.00000  )

     Band symmetry, C_2v (mm2)  point group:

     e(  1 -  1) =    -17.96078  eV     1   --> A_1  D_1  S_1  
     e(  2 -  2) =     -5.89243  eV     1   --> B_2  D_4  S_4  
     e(  3 -  3) =     -4.43080  eV     1   --> B_1  D_3  S_3  
     e(  4 -  4) =     -3.59680  eV     1   --> A_1  D_1  S_1  
     e(  5 -  5) =      4.73262  eV     1   --> A_1  D_1  S_1  
     e(  6 -  6) =      8.04701  eV     1   --> B_2  D_4  S_4  
     e(  7 -  7) =      9.71182  eV     1   --> A_1  D_1  S_1  
     e(  8 -  8) =     10.16962  eV     1   --> A_2  D_2  S_2  

 **************************************************************************

 **************************************************************************

                    xk=(   0.11667,   0.20207,   0.00000  )

     Band symmetry, C_2v (mm2)  point group:

     e(  1 -  1) =    -17.70698  eV     1   --> A_1  D_1  S_1  
     e(  2 -  2) =     -5.59276  eV     1   --> B_2  D_4  S_4  
     e(  3 -  3) =     -5.04186  eV     1   --> B_1  D_3  S_3  
     e(  4 -  4) =     -4.04529  eV     1   --> A_1  D_1  S_1  
     e(  5 -  5) =      5.08167  eV     1   --> A_1  D_1  S_1  
     e(  6 -  6) =      8.37372  eV     1   --> B_2  D_4  S_4  
     e(  7 -  7) =      9.49951  eV     1   --> A_2  D_2  S_2  
     e(  8 -  8) =      9.93457  eV     1   --> A_1  D_1  S_1  

 **************************************************************************

 **************************************************************************

                    xk=(   0.13333,   0.23094,   0.00000  )

     Band symmetry, C_2v (mm2)  point group:

     e(  1 -  1) =    -17.41458  eV     1   --> A_1  D_1  S_1  
     e(  2 -  2) =     -5.65401  eV     1   --> B_1  D_3  S_3  
     e(  3 -  3) =     -5.25013  eV     1   --> B_2  D_4  S_4  
     e(  4 -  4) =     -4.52968  eV     1   --> A_1  D_1  S_1  
     e(  5 -  5) =      5.48404  eV     1   --> A_1  D_1  S_1  
     e(  6 -  6) =      8.74660  eV     1   --> B_2  D_4  S_4  
     e(  7 -  7) =      8.79064  eV     1   --> A_2  D_2  S_2  
     e(  8 -  8) =     10.20576  eV     1   --> A_1  D_1  S_1  

 **************************************************************************

 **************************************************************************

                    xk=(   0.15000,   0.25981,   0.00000  )

     Band symmetry, C_2v (mm2)  point group:

     e(  1 -  1) =    -17.08432  eV     1   --> A_1  D_1  S_1  
     e(  2 -  2) =     -6.27036  eV     1   --> B_1  D_3  S_3  
     e(  3 -  3) =     -5.01983  eV     1   --> A_1  D_1  S_1  
     e(  4 -  4) =     -4.86150  eV     1   --> B_2  D_4  S_4  
     e(  5 -  5) =      5.94002  eV     1   --> A_1  D_1  S_1  
     e(  6 -  6) =      8.07092  eV     1   --> A_2  D_2  S_2  
     e(  7 -  7) =      9.16418  eV     1   --> B_2  D_4  S_4  
     e(  8 -  8) =     10.54262  eV     1   --> A_1  D_1  S_1  

 **************************************************************************

 **************************************************************************

                    xk=(   0.16667,   0.28868,   0.00000  )

     Band symmetry, C_2v (mm2)  point group:

     e(  1 -  1) =    -16.71830  eV     1   --> A_1  D_1  S_1  
     e(  2 -  2) =     -6.89271  eV     1   --> B_1  D_3  S_3  
     e(  3 -  3) =     -5.55102  eV     1   --> A_1  D_1  S_1  
     e(  4 -  4) =     -4.43828  eV     1   --> B_2  D_4  S_4  
     e(  5 -  5) =      6.44886  eV     1   --> A_1  D_1  S_1  
     e(  6 -  6) =      7.31674  eV     1   --> A_2  D_2  S_2  
     e(  7 -  7) =      9.61894  eV     1   --> B_2  D_4  S_4  
     e(  8 -  8) =     10.89791  eV     1   --> A_1  D_1  S_1  

 **************************************************************************

 **************************************************************************

                    xk=(   0.18333,   0.31754,   0.00000  )

     Band symmetry, C_2v (mm2)  point group:

     e(  1 -  1) =    -16.31496  eV     1   --> A_1  D_1  S_1  
     e(  2 -  2) =     -7.49102  eV     1   --> B_1  D_3  S_3  
     e(  3 -  3) =     -6.07807  eV     1   --> A_1  D_1  S_1  
     e(  4 -  4) =     -3.97316  eV     1   --> B_2  D_4  S_4  
     e(  5 -  5) =      6.57201  eV     1   --> A_2  D_2  S_2  
     e(  6 -  6) =      7.01036  eV     1   --> A_1  D_1  S_1  
     e(  7 -  7) =     10.10602  eV     1   --> B_2  D_4  S_4  
     e(  8 -  8) =     11.30423  eV     1   --> A_1  D_1  S_1  

 **************************************************************************

 **************************************************************************

                    xk=(   0.20000,   0.34641,   0.00000  )

     Band symmetry, C_2v (mm2)  point group:

     e(  1 -  1) =    -15.87755  eV     1   --> A_1  D_1  S_1  
     e(  2 -  2) =     -8.06669  eV     1   --> B_1  D_3  S_3  
     e(  3 -  3) =     -6.59949  eV     1   --> A_1  D_1  S_1  
     e(  4 -  4) =     -3.47681  eV     1   --> B_2  D_4  S_4  
     e(  5 -  5) =      5.84025  eV     1   --> A_2  D_2  S_2  
     e(  6 -  6) =      7.62395  eV     1   --> A_1  D_1  S_1  
     e(  7 -  7) =     10.61009  eV     1   --> B_2  D_4  S_4  
     e(  8 -  8) =     11.73806  eV     1   --> A_1  D_1  S_1  

 **************************************************************************

 **************************************************************************

                    xk=(   0.21667,   0.37528,   0.00000  )

     Band symmetry, C_2v (mm2)  point group:

     e(  1 -  1) =    -15.40795  eV     1   --> A_1  D_1  S_1  
     e(  2 -  2) =     -8.63183  eV     1   --> B_1  D_3  S_3  
     e(  3 -  3) =     -7.11875  eV     1   --> A_1  D_1  S_1  
     e(  4 -  4) =     -2.95423  eV     1   --> B_2  D_4  S_4  
     e(  5 -  5) =      5.09736  eV     1   --> A_2  D_2  S_2  
     e(  6 -  6) =      8.28864  eV     1   --> A_1  D_1  S_1  
     e(  7 -  7) =     11.10503  eV     1   --> B_2  D_4  S_4  
     e(  8 -  8) =     12.18999  eV     1   --> A_1  D_1  S_1  

 **************************************************************************

 **************************************************************************

                    xk=(   0.23333,   0.40415,   0.00000  )

     Band symmetry, C_2v (mm2)  point group:

     e(  1 -  1) =    -14.90697  eV     1   --> A_1  D_1  S_1  
     e(  2 -  2) =     -9.16305  eV     1   --> B_1  D_3  S_3  
     e(  3 -  3) =     -7.61429  eV     1   --> A_1  D_1  S_1  
     e(  4 -  4) =     -2.40299  eV     1   --> B_2  D_4  S_4  
     e(  5 -  5) =      4.40848  eV     1   --> A_2  D_2  S_2  
     e(  6 -  6) =      9.00338  eV     1   --> A_1  D_1  S_1  
     e(  7 -  7) =     11.54611  eV     1   --> B_2  D_4  S_4  
     e(  8 -  8) =     12.66605  eV     1   --> A_1  D_1  S_1  

 **************************************************************************

 **************************************************************************

                    xk=(   0.25000,   0.43301,   0.00000  )

     Band symmetry, C_2v (mm2)  point group:

     e(  1 -  1) =    -14.37779  eV     1   --> A_1  D_1  S_1  
     e(  2 -  2) =     -9.66533  eV     1   --> B_1  D_3  S_3  
     e(  3 -  3) =     -8.08331  eV     1   --> A_1  D_1  S_1  
     e(  4 -  4) =     -1.83497  eV     1   --> B_2  D_4  S_4  
     e(  5 -  5) =      3.73892  eV     1   --> A_2  D_2  S_2  
     e(  6 -  6) =      9.76583  eV     1   --> A_1  D_1  S_1  
     e(  7 -  7) =     11.85258  eV     1   --> B_2  D_4  S_4  
     e(  8 -  8) =     13.15246  eV     1   --> A_1  D_1  S_1  

 **************************************************************************

 **************************************************************************

                    xk=(   0.26667,   0.46188,   0.00000  )

     Band symmetry, C_2v (mm2)  point group:

     e(  1 -  1) =    -13.82703  eV     1   --> A_1  D_1  S_1  
     e(  2 -  2) =    -10.14162  eV     1   --> B_1  D_3  S_3  
     e(  3 -  3) =     -8.53651  eV     1   --> A_1  D_1  S_1  
     e(  4 -  4) =     -1.25887  eV     1   --> B_2  D_4  S_4  
     e(  5 -  5) =      3.10031  eV     1   --> A_2  D_2  S_2  
     e(  6 -  6) =     10.57122  eV     1   --> A_1  D_1  S_1  
     e(  7 -  7) =     11.95629  eV     1   --> B_2  D_4  S_4  
     e(  8 -  8) =     13.59264  eV     1   --> A_1  D_1  S_1  

 **************************************************************************

 **************************************************************************

                    xk=(   0.28333,   0.49075,   0.00000  )

     Band symmetry, C_2v (mm2)  point group:

     e(  1 -  1) =    -13.26018  eV     1   --> A_1  D_1  S_1  
     e(  2 -  2) =    -10.58650  eV     1   --> B_1  D_3  S_3  
     e(  3 -  3) =     -8.94879  eV     1   --> A_1  D_1  S_1  
     e(  4 -  4) =     -0.68168  eV     1   --> B_2  D_4  S_4  
     e(  5 -  5) =      2.49663  eV     1   --> A_2  D_2  S_2  
     e(  6 -  6) =     11.41279  eV     1   --> A_1  D_1  S_1  
     e(  7 -  7) =     11.88877  eV     1   --> B_2  D_4  S_4  
     e(  8 -  8) =     13.84558  eV     1   --> B_1  D_3  S_3  

 **************************************************************************

 **************************************************************************

                    xk=(   0.30000,   0.51962,   0.00000  )

     Band symmetry, C_2v (mm2)  point group:

     e(  1 -  1) =    -12.69144  eV     1   --> A_1  D_1  S_1  
     e(  2 -  2) =    -10.99881  eV     1   --> B_1  D_3  S_3  
     e(  3 -  3) =     -9.29777  eV     1   --> A_1  D_1  S_1  
     e(  4 -  4) =     -0.11290  eV     1   --> B_2  D_4  S_4  
     e(  5 -  5) =      1.93054  eV     1   --> A_2  D_2  S_2  
     e(  6 -  6) =     11.75041  eV     1   --> B_2  D_4  S_4  
     e(  7 -  7) =     12.27199  eV     1   --> A_1  D_1  S_1  
     e(  8 -  8) =     13.90249  eV     1   --> B_1  D_3  S_3  

 **************************************************************************

 **************************************************************************

                    xk=(   0.31667,   0.54848,   0.00000  )

     Band symmetry, C_2v (mm2)  point group:

     e(  1 -  1) =    -12.15831  eV     1   --> A_1  D_1  S_1  
     e(  2 -  2) =    -11.37921  eV     1   --> B_1  D_3  S_3  
     e(  3 -  3) =     -9.56284  eV     1   --> A_1  D_1  S_1  
     e(  4 -  4) =      0.42380  eV     1   --> B_2  D_4  S_4  
     e(  5 -  5) =      1.40585  eV     1   --> A_2  D_2  S_2  
     e(  6 -  6) =     11.63196  eV     1   --> B_2  D_4  S_4  
     e(  7 -  7) =     13.09189  eV     1   --> A_1  D_1  S_1  
     e(  8 -  8) =     13.83976  eV     1   --> B_1  D_3  S_3  

 **************************************************************************

 **************************************************************************

                    xk=(   0.33333,   0.57735,   0.00000  )

     zone border point and non-symmorphic group 
     symmetry decomposition not available

 **************************************************************************

 **************************************************************************

                    xk=(   0.30000,   0.57735,   0.00000  )

     zone border point and non-symmorphic group 
     symmetry decomposition not available

 **************************************************************************

 **************************************************************************

                    xk=(   0.26667,   0.57735,   0.00000  )

     zone border point and non-symmorphic group 
     symmetry decomposition not available

 **************************************************************************

 **************************************************************************

                    xk=(   0.23333,   0.57735,   0.00000  )

     zone border point and non-symmorphic group 
     symmetry decomposition not available

 **************************************************************************

 **************************************************************************

                    xk=(   0.20000,   0.57735,   0.00000  )

     zone border point and non-symmorphic group 
     symmetry decomposition not available

 **************************************************************************

 **************************************************************************

                    xk=(   0.16667,   0.57735,   0.00000  )

     zone border point and non-symmorphic group 
     symmetry decomposition not available

 **************************************************************************

 **************************************************************************

                    xk=(   0.13333,   0.57735,   0.00000  )

     zone border point and non-symmorphic group 
     symmetry decomposition not available

 **************************************************************************

 **************************************************************************

                    xk=(   0.10000,   0.57735,   0.00000  )

     zone border point and non-symmorphic group 
     symmetry decomposition not available

 **************************************************************************

 **************************************************************************

                    xk=(   0.06667,   0.57735,   0.00000  )

     zone border point and non-symmorphic group 
     symmetry decomposition not available

 **************************************************************************

 **************************************************************************

                    xk=(   0.03333,   0.57735,   0.00000  )

     zone border point and non-symmorphic group 
     symmetry decomposition not available

 **************************************************************************

 **************************************************************************

                    xk=(   0.00000,   0.57735,   0.00000  )

     zone border point and non-symmorphic group 
     symmetry decomposition not available

 **************************************************************************

 **************************************************************************

                    xk=(   0.00000,   0.54339,   0.00000  )

     point group C_2v (mm2) 
     there are  4 classes
     the character table:

       E     C2    s_v   s_v' 
A_1    1.00  1.00  1.00  1.00
A_2    1.00  1.00 -1.00 -1.00
B_1    1.00 -1.00  1.00 -1.00
B_2    1.00 -1.00 -1.00  1.00

     the symmetry operations in each class and the name of the first element:

     E        1
                                                                 
     C2       2
                                                                 
     s_v      3
                                                                 
     s_v'     4
                                                                 

     Band symmetry, C_2v (mm2)  point group:

     e(  1 -  1) =    -13.71359  eV     1   --> A_1  D_1  S_1  
     e(  2 -  2) =    -12.05354  eV     1   --> A_1  D_1  S_1  
     e(  3 -  3) =     -5.53511  eV     1   --> B_1  D_3  S_3  
     e(  4 -  4) =     -1.57563  eV     1   --> B_2  D_4  S_4  
     e(  5 -  5) =      2.75731  eV     1   --> B_2  D_4  S_4  
     e(  6 -  6) =      8.30202  eV     1   --> A_1  D_1  S_1  
     e(  7 -  7) =     10.85256  eV     1   --> A_1  D_1  S_1  
     e(  8 -  8) =     12.68258  eV     1   --> A_1  D_1  S_1  

 **************************************************************************

 **************************************************************************

                    xk=(   0.00000,   0.50943,   0.00000  )

     Band symmetry, C_2v (mm2)  point group:

     e(  1 -  1) =    -14.23324  eV     1   --> A_1  D_1  S_1  
     e(  2 -  2) =    -11.44259  eV     1   --> A_1  D_1  S_1  
     e(  3 -  3) =     -5.47432  eV     1   --> B_1  D_3  S_3  
     e(  4 -  4) =     -1.91616  eV     1   --> B_2  D_4  S_4  
     e(  5 -  5) =      3.19347  eV     1   --> B_2  D_4  S_4  
     e(  6 -  6) =      8.33212  eV     1   --> A_1  D_1  S_1  
     e(  7 -  7) =     10.01057  eV     1   --> A_1  D_1  S_1  
     e(  8 -  8) =     12.89857  eV     1   --> B_2  D_4  S_4  

 **************************************************************************

 **************************************************************************

                    xk=(   0.00000,   0.47546,   0.00000  )

     Band symmetry, C_2v (mm2)  point group:

     e(  1 -  1) =    -14.76881  eV     1   --> A_1  D_1  S_1  
     e(  2 -  2) =    -10.75526  eV     1   --> A_1  D_1  S_1  
     e(  3 -  3) =     -5.36897  eV     1   --> B_1  D_3  S_3  
     e(  4 -  4) =     -2.37151  eV     1   --> B_2  D_4  S_4  
     e(  5 -  5) =      3.80668  eV     1   --> B_2  D_4  S_4  
     e(  6 -  6) =      8.38067  eV     1   --> A_1  D_1  S_1  
     e(  7 -  7) =      9.22229  eV     1   --> A_1  D_1  S_1  
     e(  8 -  8) =     12.21493  eV     1   --> B_2  D_4  S_4  

 **************************************************************************

 **************************************************************************

                    xk=(   0.00000,   0.44150,   0.00000  )

     Band symmetry, C_2v (mm2)  point group:

     e(  1 -  1) =    -15.28479  eV     1   --> A_1  D_1  S_1  
     e(  2 -  2) =    -10.02075  eV     1   --> A_1  D_1  S_1  
     e(  3 -  3) =     -5.22900  eV     1   --> B_1  D_3  S_3  
     e(  4 -  4) =     -2.87133  eV     1   --> B_2  D_4  S_4  
     e(  5 -  5) =      4.53482  eV     1   --> B_2  D_4  S_4  
     e(  6 -  6) =      8.35893  eV     1   --> A_1  D_1  S_1  
     e(  7 -  7) =      8.57348  eV     1   --> A_1  D_1  S_1  
     e(  8 -  8) =     11.55378  eV     1   --> B_2  D_4  S_4  

 **************************************************************************

 **************************************************************************

                    xk=(   0.00000,   0.40754,   0.00000  )

     Band symmetry, C_2v (mm2)  point group:

     e(  1 -  1) =    -15.77126  eV     1   --> A_1  D_1  S_1  
     e(  2 -  2) =     -9.26946  eV     1   --> A_1  D_1  S_1  
     e(  3 -  3) =     -5.05846  eV     1   --> B_1  D_3  S_3  
     e(  4 -  4) =     -3.38510  eV     1   --> B_2  D_4  S_4  
     e(  5 -  5) =      5.30335  eV     1   --> B_2  D_4  S_4  
     e(  6 -  6) =      7.75917  eV     1   --> A_1  D_1  S_1  
     e(  7 -  7) =      8.57087  eV     1   --> A_1  D_1  S_1  
     e(  8 -  8) =     10.92756  eV     1   --> B_2  D_4  S_4  

 **************************************************************************

 **************************************************************************

                    xk=(   0.00000,   0.37358,   0.00000  )

     Band symmetry, C_2v (mm2)  point group:

     e(  1 -  1) =    -16.22699  eV     1   --> A_1  D_1  S_1  
     e(  2 -  2) =     -8.50059  eV     1   --> A_1  D_1  S_1  
     e(  3 -  3) =     -4.84649  eV     1   --> B_1  D_3  S_3  
     e(  4 -  4) =     -3.89005  eV     1   --> B_2  D_4  S_4  
     e(  5 -  5) =      6.11206  eV     1   --> B_2  D_4  S_4  
     e(  6 -  6) =      7.12811  eV     1   --> A_1  D_1  S_1  
     e(  7 -  7) =      8.66403  eV     1   --> A_1  D_1  S_1  
     e(  8 -  8) =     10.34051  eV     1   --> B_2  D_4  S_4  

 **************************************************************************

 **************************************************************************

                    xk=(   0.00000,   0.33962,   0.00000  )

     Band symmetry, C_2v (mm2)  point group:

     e(  1 -  1) =    -16.64385  eV     1   --> A_1  D_1  S_1  
     e(  2 -  2) =     -7.71792  eV     1   --> A_1  D_1  S_1  
     e(  3 -  3) =     -4.59829  eV     1   --> B_1  D_3  S_3  
     e(  4 -  4) =     -4.35847  eV     1   --> B_2  D_4  S_4  
     e(  5 -  5) =      6.54780  eV     1   --> A_1  D_1  S_1  
     e(  6 -  6) =      6.93847  eV     1   --> B_2  D_4  S_4  
     e(  7 -  7) =      8.77875  eV     1   --> A_1  D_1  S_1  
     e(  8 -  8) =      9.80351  eV     1   --> B_2  D_4  S_4  

 **************************************************************************

 **************************************************************************

                    xk=(   0.00000,   0.30566,   0.00000  )

     Band symmetry, C_2v (mm2)  point group:

     e(  1 -  1) =    -17.02446  eV     1   --> A_1  D_1  S_1  
     e(  2 -  2) =     -6.94390  eV     1   --> A_1  D_1  S_1  
     e(  3 -  3) =     -4.79391  eV     1   --> B_2  D_4  S_4  
     e(  4 -  4) =     -4.32949  eV     1   --> B_1  D_3  S_3  
     e(  5 -  5) =      6.02102  eV     1   --> A_1  D_1  S_1  
     e(  6 -  6) =      7.74366  eV     1   --> B_2  D_4  S_4  
     e(  7 -  7) =      8.90068  eV     1   --> A_1  D_1  S_1  
     e(  8 -  8) =      9.32148  eV     1   --> B_2  D_4  S_4  

 **************************************************************************

 **************************************************************************

                    xk=(   0.00000,   0.27169,   0.00000  )

     Band symmetry, C_2v (mm2)  point group:

     e(  1 -  1) =    -17.36620  eV     1   --> A_1  D_1  S_1  
     e(  2 -  2) =     -6.16606  eV     1   --> A_1  D_1  S_1  
     e(  3 -  3) =     -5.19026  eV     1   --> B_2  D_4  S_4  
     e(  4 -  4) =     -4.03519  eV     1   --> B_1  D_3  S_3  
     e(  5 -  5) =      5.54858  eV     1   --> A_1  D_1  S_1  
     e(  6 -  6) =      8.45558  eV     1   --> B_2  D_4  S_4  
     e(  7 -  7) =      8.96462  eV     1   --> B_2  D_4  S_4  
     e(  8 -  8) =      9.01836  eV     1   --> A_1  D_1  S_1  

 **************************************************************************

 **************************************************************************

                    xk=(   0.00000,   0.23773,   0.00000  )

     Band symmetry, C_2v (mm2)  point group:

     e(  1 -  1) =    -17.67047  eV     1   --> A_1  D_1  S_1  
     e(  2 -  2) =     -5.54616  eV     1   --> B_2  D_4  S_4  
     e(  3 -  3) =     -5.41893  eV     1   --> A_1  D_1  S_1  
     e(  4 -  4) =     -3.72060  eV     1   --> B_1  D_3  S_3  
     e(  5 -  5) =      5.13112  eV     1   --> A_1  D_1  S_1  
     e(  6 -  6) =      8.39808  eV     1   --> B_2  D_4  S_4  
     e(  7 -  7) =      9.11134  eV     1   --> A_1  D_1  S_1  
     e(  8 -  8) =      9.39301  eV     1   --> B_2  D_4  S_4  

 **************************************************************************

 **************************************************************************

                    xk=(   0.00000,   0.20377,   0.00000  )

     Band symmetry, C_2v (mm2)  point group:

     e(  1 -  1) =    -17.93375  eV     1   --> A_1  D_1  S_1  
     e(  2 -  2) =     -5.85569  eV     1   --> B_2  D_4  S_4  
     e(  3 -  3) =     -4.67260  eV     1   --> A_1  D_1  S_1  
     e(  4 -  4) =     -3.40428  eV     1   --> B_1  D_3  S_3  
     e(  5 -  5) =      4.76921  eV     1   --> A_1  D_1  S_1  
     e(  6 -  6) =      8.07910  eV     1   --> B_2  D_4  S_4  
     e(  7 -  7) =      9.20353  eV     1   --> A_1  D_1  S_1  
     e(  8 -  8) =     10.09406  eV     1   --> B_2  D_4  S_4  

 **************************************************************************

 **************************************************************************

                    xk=(   0.00000,   0.16981,   0.00000  )

     Band symmetry, C_2v (mm2)  point group:

     e(  1 -  1) =    -18.15767  eV     1   --> A_1  D_1  S_1  
     e(  2 -  2) =     -6.12064  eV     1   --> B_2  D_4  S_4  
     e(  3 -  3) =     -4.00253  eV     1   --> A_1  D_1  S_1  
     e(  4 -  4) =     -3.09376  eV     1   --> B_1  D_3  S_3  
     e(  5 -  5) =      4.46269  eV     1   --> A_1  D_1  S_1  
     e(  6 -  6) =      7.79328  eV     1   --> B_2  D_4  S_4  
     e(  7 -  7) =      9.24475  eV     1   --> A_1  D_1  S_1  
     e(  8 -  8) =     10.12779  eV     1   --> A_1  D_1  S_1  

 **************************************************************************

 **************************************************************************

                    xk=(   0.00000,   0.13585,   0.00000  )

     Band symmetry, C_2v (mm2)  point group:

     e(  1 -  1) =    -18.34097  eV     1   --> A_1  D_1  S_1  
     e(  2 -  2) =     -6.33845  eV     1   --> B_2  D_4  S_4  
     e(  3 -  3) =     -3.39182  eV     1   --> A_1  D_1  S_1  
     e(  4 -  4) =     -2.80060  eV     1   --> B_1  D_3  S_3  
     e(  5 -  5) =      4.21193  eV     1   --> A_1  D_1  S_1  
     e(  6 -  6) =      7.55618  eV     1   --> B_2  D_4  S_4  
     e(  7 -  7) =      9.27775  eV     1   --> A_1  D_1  S_1  
     e(  8 -  8) =      9.89030  eV     1   --> A_1  D_1  S_1  

 **************************************************************************

 **************************************************************************

                    xk=(   0.00000,   0.10189,   0.00000  )

     Band symmetry, C_2v (mm2)  point group:

     e(  1 -  1) =    -18.48420  eV     1   --> A_1  D_1  S_1  
     e(  2 -  2) =     -6.50867  eV     1   --> B_2  D_4  S_4  
     e(  3 -  3) =     -2.89733  eV     1   --> A_1  D_1  S_1  
     e(  4 -  4) =     -2.53191  eV     1   --> B_1  D_3  S_3  
     e(  5 -  5) =      4.01678  eV     1   --> A_1  D_1  S_1  
     e(  6 -  6) =      7.37060  eV     1   --> B_2  D_4  S_4  
     e(  7 -  7) =      9.26202  eV     1   --> A_1  D_1  S_1  
     e(  8 -  8) =      9.69723  eV     1   --> A_1  D_1  S_1  

 **************************************************************************

 **************************************************************************

                    xk=(   0.00000,   0.06792,   0.00000  )

     Band symmetry, C_2v (mm2)  point group:

     e(  1 -  1) =    -18.58646  eV     1   --> A_1  D_1  S_1  
     e(  2 -  2) =     -6.63165  eV     1   --> B_2  D_4  S_4  
     e(  3 -  3) =     -2.50654  eV     1   --> A_1  D_1  S_1  
     e(  4 -  4) =     -2.33725  eV     1   --> B_1  D_3  S_3  
     e(  5 -  5) =      3.87739  eV     1   --> A_1  D_1  S_1  
     e(  6 -  6) =      7.23730  eV     1   --> B_2  D_4  S_4  
     e(  7 -  7) =      9.24647  eV     1   --> A_1  D_1  S_1  
     e(  8 -  8) =      9.54776  eV     1   --> A_1  D_1  S_1  

 **************************************************************************

 **************************************************************************

                    xk=(   0.00000,   0.03396,   0.00000  )

     Band symmetry, C_2v (mm2)  point group:

     e(  1 -  1) =    -18.64755  eV     1   --> A_1  D_1  S_1  
     e(  2 -  2) =     -6.69761  eV     1   --> B_2  D_4  S_4  
     e(  3 -  3) =     -2.26154  eV     1   --> A_1  D_1  S_1  
     e(  4 -  4) =     -2.20676  eV     1   --> B_1  D_3  S_3  
     e(  5 -  5) =      3.79383  eV     1   --> A_1  D_1  S_1  
     e(  6 -  6) =      7.15959  eV     1   --> B_2  D_4  S_4  
     e(  7 -  7) =      9.24232  eV     1   --> A_1  D_1  S_1  
     e(  8 -  8) =      9.33777  eV     1   --> B_1  D_3  S_3  

 **************************************************************************

 **************************************************************************

                    xk=(   0.00000,   0.00000,   0.00000  )

     point group D_6h(6/mmm)
     there are 12 classes
     the character table:

       E     2C6   2C3   C2    3C2'  3C2'' i     2S3   2S6   s_h   3s_d  3s_v 
A_1g   1.00  1.00  1.00  1.00  1.00  1.00  1.00  1.00  1.00  1.00  1.00  1.00
A_2g   1.00  1.00  1.00  1.00 -1.00 -1.00  1.00  1.00  1.00  1.00 -1.00 -1.00
B_1g   1.00 -1.00  1.00 -1.00  1.00 -1.00  1.00 -1.00  1.00 -1.00  1.00 -1.00
B_2g   1.00 -1.00  1.00 -1.00 -1.00  1.00  1.00 -1.00  1.00 -1.00 -1.00  1.00
E_1g   2.00  1.00 -1.00 -2.00  0.00  0.00  2.00  1.00 -1.00 -2.00  0.00  0.00
E_2g   2.00 -1.00 -1.00  2.00  0.00  0.00  2.00 -1.00 -1.00  2.00  0.00  0.00
A_1u   1.00  1.00  1.00  1.00  1.00  1.00 -1.00 -1.00 -1.00 -1.00 -1.00 -1.00
A_2u   1.00  1.00  1.00  1.00 -1.00 -1.00 -1.00 -1.00 -1.00 -1.00  1.00  1.00
B_1u   1.00 -1.00  1.00 -1.00  1.00 -1.00 -1.00  1.00 -1.00  1.00 -1.00  1.00
B_2u   1.00 -1.00  1.00 -1.00 -1.00  1.00 -1.00  1.00 -1.00  1.00  1.00 -1.00
E_1u   2.00  1.00 -1.00 -2.00  0.00  0.00 -2.00 -1.00  1.00  2.00  0.00  0.00
E_2u   2.00 -1.00 -1.00  2.00  0.00  0.00 -2.00  1.00  1.00 -2.00  0.00  0.00

     the symmetry operations in each class and the name of the first element:

     E        1
                                                                 
     2C6      5    6
                                                                 
     2C3      7    8
                                                                 
     C2       2
                                                                 
     3C2'     4   12   11
                                                                 
     3C2''    3    9   10
                                                                 
     i       13
                                                                 
     2S3     17   18
                                                                 
     2S6     19   20
                                                                 
     s_h     14
                                                                 
     3s_d    16   24   23
                                                                 
     3s_v    15   21   22
                                                                 

     Band symmetry, D_6h(6/mmm) point group:

     e(  1 -  1) =    -18.66790  eV     1   --> A_1g           
     e(  2 -  2) =     -6.72120  eV     1   --> A_2u           
     e(  3 -  4) =     -2.15103  eV     2   --> E_2g           
     e(  5 -  5) =      3.76596  eV     1   --> A_1g           
     e(  6 -  6) =      7.13314  eV     1   --> A_2u           
     e(  7 -  8) =      9.25489  eV     2   --> E_1u           

 **************************************************************************
 
     BANDS        :      2.62s CPU      2.75s WALL

 
   This run was terminated on:  16:57: 3  30May2020            

=------------------------------------------------------------------------------=
   JOB DONE.
=------------------------------------------------------------------------------=
