
     Program PWSCF v.6.5 starts on 30May2020 at 16:56:56 

     This program is part of the open-source Quantum ESPRESSO suite
     for quantum simulation of materials; please cite
         "P. Giannozzi et al., J. Phys.:Condens. Matter 21 395502 (2009);
         "P. Giannozzi et al., J. Phys.:Condens. Matter 29 465901 (2017);
          URL http://www.quantum-espresso.org", 
     in publications or presentations arising from this work. More details at
     http://www.quantum-espresso.org/quote

     Parallel version (MPI), running on     1 processors

     MPI processes distributed on     1 nodes
     Waiting for input...
     Reading input from standard input

     Current dimensions of program PWSCF are:
     Max number of different atomic species (ntypx) = 10
     Max number of k-points (npk) =  40000
     Max angular momentum in pseudopotentials (lmaxx) =  3

     Atomic positions and unit cell read from directory:
     /scratch/groups/saraswat/aravind2/qe/graphene/Graphene_1x1_PBE.save/                                                                                                                                                                                            
 
               file C.pbe-rrkjus.UPF: wavefunction(s)  2S 2P renormalized

     Subspace diagonalization in iterative solution of the eigenvalue problem:
     a serial algorithm will be used

 
     G-vector sticks info
     --------------------
     sticks:   dense  smooth     PW     G-vecs:    dense   smooth      PW
     Sum         301     121     37                12531     3147     647
 


     bravais-lattice index     =            4
     lattice parameter (alat)  =       4.6540  a.u.
     unit-cell volume          =     261.8973 (a.u.)^3
     number of atoms/cell      =            2
     number of atomic types    =            1
     number of electrons       =         8.00
     number of Kohn-Sham states=            8
     kinetic-energy cutoff     =      20.0000  Ry
     charge density cutoff     =     200.0000  Ry
     Exchange-correlation= SLA PW PBE PBE
                           (   1   4   3   4   0   0   0)

     celldm(1)=   4.654000  celldm(2)=   0.000000  celldm(3)=   3.000000
     celldm(4)=   0.000000  celldm(5)=   0.000000  celldm(6)=   0.000000

     crystal axes: (cart. coord. in units of alat)
               a(1) = (   1.000000   0.000000   0.000000 )  
               a(2) = (  -0.500000   0.866025   0.000000 )  
               a(3) = (   0.000000   0.000000   3.000000 )  

     reciprocal axes: (cart. coord. in units 2 pi/alat)
               b(1) = (  1.000000  0.577350  0.000000 )  
               b(2) = (  0.000000  1.154701  0.000000 )  
               b(3) = (  0.000000  0.000000  0.333333 )  


     PseudoPot. # 1 for C  read from file:
     /home/groups/saraswat/qe-6.5/pseudo/C.pbe-rrkjus.UPF
     MD5 check sum: c9ac5a99bc85b198593446162950cd17
     Pseudo is Ultrasoft, Zval =  4.0
     Generated by new atomic code, or converted to UPF format
     Using radial grid of  627 points,  4 beta functions with: 
                l(1) =   0
                l(2) =   0
                l(3) =   1
                l(4) =   1
     Q(r) pseudized with 0 coefficients 


     atomic species   valence    mass     pseudopotential
        C              4.00    12.01070     C ( 1.00)

     24 Sym. Ops., with inversion, found (12 have fractional translation)



   Cartesian axes

     site n.     atom                  positions (alat units)
         1           C   tau(   1) = (   0.0000000   0.0000000   0.0000000  )
         2           C   tau(   2) = (   0.0000000   0.5773503   0.0000000  )

     number of k points=    48
                       cart. coord. in units 2pi/alat
        k(    1) = (   0.0000000   0.0000000   0.0000000), wk =   0.0416667
        k(    2) = (   0.0166667   0.0288675   0.0000000), wk =   0.0416667
        k(    3) = (   0.0333333   0.0577350   0.0000000), wk =   0.0416667
        k(    4) = (   0.0500000   0.0866025   0.0000000), wk =   0.0416667
        k(    5) = (   0.0666667   0.1154701   0.0000000), wk =   0.0416667
        k(    6) = (   0.0833333   0.1443376   0.0000000), wk =   0.0416667
        k(    7) = (   0.1000000   0.1732051   0.0000000), wk =   0.0416667
        k(    8) = (   0.1166667   0.2020726   0.0000000), wk =   0.0416667
        k(    9) = (   0.1333333   0.2309401   0.0000000), wk =   0.0416667
        k(   10) = (   0.1500000   0.2598076   0.0000000), wk =   0.0416667
        k(   11) = (   0.1666667   0.2886751   0.0000000), wk =   0.0416667
        k(   12) = (   0.1833333   0.3175426   0.0000000), wk =   0.0416667
        k(   13) = (   0.2000000   0.3464102   0.0000000), wk =   0.0416667
        k(   14) = (   0.2166667   0.3752777   0.0000000), wk =   0.0416667
        k(   15) = (   0.2333333   0.4041452   0.0000000), wk =   0.0416667
        k(   16) = (   0.2500000   0.4330127   0.0000000), wk =   0.0416667
        k(   17) = (   0.2666667   0.4618802   0.0000000), wk =   0.0416667
        k(   18) = (   0.2833333   0.4907477   0.0000000), wk =   0.0416667
        k(   19) = (   0.3000000   0.5196152   0.0000000), wk =   0.0416667
        k(   20) = (   0.3166667   0.5484828   0.0000000), wk =   0.0416667
        k(   21) = (   0.3333333   0.5773503   0.0000000), wk =   0.0416667
        k(   22) = (   0.3000000   0.5773503   0.0000000), wk =   0.0416667
        k(   23) = (   0.2666667   0.5773503   0.0000000), wk =   0.0416667
        k(   24) = (   0.2333333   0.5773503   0.0000000), wk =   0.0416667
        k(   25) = (   0.2000000   0.5773503   0.0000000), wk =   0.0416667
        k(   26) = (   0.1666667   0.5773503   0.0000000), wk =   0.0416667
        k(   27) = (   0.1333333   0.5773503   0.0000000), wk =   0.0416667
        k(   28) = (   0.1000000   0.5773503   0.0000000), wk =   0.0416667
        k(   29) = (   0.0666667   0.5773503   0.0000000), wk =   0.0416667
        k(   30) = (   0.0333333   0.5773503   0.0000000), wk =   0.0416667
        k(   31) = (   0.0000000   0.5773503   0.0000000), wk =   0.0416667
        k(   32) = (   0.0000000   0.5433885   0.0000000), wk =   0.0416667
        k(   33) = (   0.0000000   0.5094267   0.0000000), wk =   0.0416667
        k(   34) = (   0.0000000   0.4754649   0.0000000), wk =   0.0416667
        k(   35) = (   0.0000000   0.4415031   0.0000000), wk =   0.0416667
        k(   36) = (   0.0000000   0.4075414   0.0000000), wk =   0.0416667
        k(   37) = (   0.0000000   0.3735796   0.0000000), wk =   0.0416667
        k(   38) = (   0.0000000   0.3396178   0.0000000), wk =   0.0416667
        k(   39) = (   0.0000000   0.3056560   0.0000000), wk =   0.0416667
        k(   40) = (   0.0000000   0.2716942   0.0000000), wk =   0.0416667
        k(   41) = (   0.0000000   0.2377325   0.0000000), wk =   0.0416667
        k(   42) = (   0.0000000   0.2037707   0.0000000), wk =   0.0416667
        k(   43) = (   0.0000000   0.1698089   0.0000000), wk =   0.0416667
        k(   44) = (   0.0000000   0.1358471   0.0000000), wk =   0.0416667
        k(   45) = (   0.0000000   0.1018853   0.0000000), wk =   0.0416667
        k(   46) = (   0.0000000   0.0679236   0.0000000), wk =   0.0416667
        k(   47) = (   0.0000000   0.0339618   0.0000000), wk =   0.0416667
        k(   48) = (   0.0000000   0.0000000   0.0000000), wk =   0.0416667

     Dense  grid:    12531 G-vectors     FFT dimensions: (  24,  24,  64)

     Smooth grid:     3147 G-vectors     FFT dimensions: (  15,  15,  40)

     Estimated max dynamical RAM per process >      13.13 MB

     The potential is recalculated from file :
     /scratch/groups/saraswat/aravind2/qe/graphene/Graphene_1x1_PBE.save/charge-density


     negative rho (up, down):  3.199E-06 0.000E+00
     Starting wfcs are    8 randomized atomic wfcs

     Band Structure Calculation
     Davidson diagonalization with overlap

     ethr =  1.25E-10,  avg # of iterations = 17.5

     total cpu time spent up to now is        1.8 secs

     End of band structure calculation

          k = 0.0000 0.0000 0.0000 (   397 PWs)   bands (ev):

   -18.6679  -6.7212  -2.1510  -2.1510   3.7660   7.1331   9.2549   9.2549

          k = 0.0167 0.0289 0.0000 (   401 PWs)   bands (ev):

   -18.6482  -6.6980  -2.2491  -2.1960   3.7928   7.1587   9.2474   9.3387

          k = 0.0333 0.0577 0.0000 (   403 PWs)   bands (ev):

   -18.5893  -6.6307  -2.4896  -2.3331   3.8733   7.2348   9.2566   9.5448

          k = 0.0500 0.0866 0.0000 (   411 PWs)   bands (ev):

   -18.4912  -6.5216  -2.8564  -2.5591   4.0076   7.3604   9.3048   9.6941

          k = 0.0667 0.1155 0.0000 (   407 PWs)   bands (ev):

   -18.3533  -6.3574  -3.3106  -2.8424   4.1956   7.5394   9.4019   9.8912

          k = 0.0833 0.1443 0.0000 (   403 PWs)   bands (ev):

   -18.1765  -6.1472  -3.8425  -3.1865   4.4374   7.7687   9.5455  10.1341

          k = 0.1000 0.1732 0.0000 (   409 PWs)   bands (ev):

   -17.9608  -5.8924  -4.4308  -3.5968   4.7326   8.0470   9.7118  10.1696

          k = 0.1167 0.2021 0.0000 (   409 PWs)   bands (ev):

   -17.7070  -5.5928  -5.0419  -4.0453   5.0817   8.3737   9.4995   9.9346

          k = 0.1333 0.2309 0.0000 (   407 PWs)   bands (ev):

   -17.4146  -5.6540  -5.2501  -4.5297   5.4840   8.7466   8.7906  10.2058

          k = 0.1500 0.2598 0.0000 (   395 PWs)   bands (ev):

   -17.0843  -6.2704  -5.0198  -4.8615   5.9400   8.0709   9.1642  10.5426

          k = 0.1667 0.2887 0.0000 (   399 PWs)   bands (ev):

   -16.7183  -6.8927  -5.5510  -4.4383   6.4489   7.3167   9.6189  10.8979

          k = 0.1833 0.3175 0.0000 (   397 PWs)   bands (ev):

   -16.3150  -7.4910  -6.0781  -3.9732   6.5720   7.0104  10.1060  11.3042

          k = 0.2000 0.3464 0.0000 (   391 PWs)   bands (ev):

   -15.8775  -8.0667  -6.5995  -3.4768   5.8403   7.6240  10.6101  11.7381

          k = 0.2167 0.3753 0.0000 (   399 PWs)   bands (ev):

   -15.4080  -8.6318  -7.1187  -2.9542   5.0974   8.2886  11.1050  12.1900

          k = 0.2333 0.4041 0.0000 (   395 PWs)   bands (ev):

   -14.9070  -9.1630  -7.6143  -2.4030   4.4085   9.0034  11.5461  12.6660

          k = 0.2500 0.4330 0.0000 (   391 PWs)   bands (ev):

   -14.3778  -9.6653  -8.0833  -1.8350   3.7389   9.7658  11.8526  13.1525

          k = 0.2667 0.4619 0.0000 (   395 PWs)   bands (ev):

   -13.8270 -10.1416  -8.5365  -1.2589   3.1003  10.5712  11.9563  13.5926

          k = 0.2833 0.4907 0.0000 (   395 PWs)   bands (ev):

   -13.2602 -10.5865  -8.9488  -0.6817   2.4966  11.4128  11.8888  13.8456

          k = 0.3000 0.5196 0.0000 (   389 PWs)   bands (ev):

   -12.6914 -10.9988  -9.2978  -0.1129   1.9305  11.7504  12.2720  13.9025

          k = 0.3167 0.5485 0.0000 (   383 PWs)   bands (ev):

   -12.1583 -11.3792  -9.5628   0.4238   1.4058  11.6320  13.0919  13.8398

          k = 0.3333 0.5774 0.0000 (   381 PWs)   bands (ev):

   -11.7300 -11.7300  -9.6761   0.9204   0.9204  11.5853  13.6509  13.6509

          k = 0.3000 0.5774 0.0000 (   382 PWs)   bands (ev):

   -12.0481 -11.5181  -9.5332   0.4778   1.3532  11.6388  13.3842  13.5632

          k = 0.2667 0.5774 0.0000 (   396 PWs)   bands (ev):

   -12.3393 -11.5332  -9.1405   0.0636   1.7065  11.8035  13.0808  13.2223

          k = 0.2333 0.5774 0.0000 (   398 PWs)   bands (ev):

   -12.5913 -11.6605  -8.5909  -0.2904   1.9936  12.0758  12.6199  12.7822

          k = 0.2000 0.5774 0.0000 (   394 PWs)   bands (ev):

   -12.8099 -11.8205  -7.9807  -0.5897   2.2113  11.7509  12.4333  12.5042

          k = 0.1667 0.5774 0.0000 (   390 PWs)   bands (ev):

   -12.9947 -11.9777  -7.3657  -0.8506   2.3640  10.8632  12.2591  12.4406

          k = 0.1333 0.5774 0.0000 (   390 PWs)   bands (ev):

   -13.1465 -12.1166  -6.7896  -1.0657   2.4675  10.0291  12.0520  12.2188

          k = 0.1000 0.5774 0.0000 (   388 PWs)   bands (ev):

   -13.2647 -12.2289  -6.2858  -1.2271   2.5346   9.3189  11.8881  12.0451

          k = 0.0667 0.5774 0.0000 (   392 PWs)   bands (ev):

   -13.3490 -12.3118  -5.8919  -1.3474   2.5711   8.7657  11.7696  11.9200

          k = 0.0333 0.5774 0.0000 (   388 PWs)   bands (ev):

   -13.3995 -12.3613  -5.6294  -1.4189   2.5902   8.4177  11.6984  11.8449

          k = 0.0000 0.5774 0.0000 (   390 PWs)   bands (ev):

   -13.4157 -12.3789  -5.5473  -1.4433   2.6003   8.2921  11.6747  11.8196

          k = 0.0000 0.5434 0.0000 (   396 PWs)   bands (ev):

   -13.7136 -12.0535  -5.5351  -1.5756   2.7573   8.3020  10.8526  12.6826

          k = 0.0000 0.5094 0.0000 (   396 PWs)   bands (ev):

   -14.2332 -11.4426  -5.4743  -1.9162   3.1935   8.3321  10.0106  12.8986

          k = 0.0000 0.4755 0.0000 (   392 PWs)   bands (ev):

   -14.7688 -10.7553  -5.3690  -2.3715   3.8067   8.3807   9.2223  12.2149

          k = 0.0000 0.4415 0.0000 (   388 PWs)   bands (ev):

   -15.2848 -10.0208  -5.2290  -2.8713   4.5348   8.3589   8.5735  11.5538

          k = 0.0000 0.4075 0.0000 (   394 PWs)   bands (ev):

   -15.7713  -9.2695  -5.0585  -3.3851   5.3033   7.7592   8.5709  10.9276

          k = 0.0000 0.3736 0.0000 (   398 PWs)   bands (ev):

   -16.2270  -8.5006  -4.8465  -3.8901   6.1121   7.1281   8.6640  10.3405

          k = 0.0000 0.3396 0.0000 (   392 PWs)   bands (ev):

   -16.6438  -7.7179  -4.5983  -4.3585   6.5478   6.9385   8.7788   9.8035

          k = 0.0000 0.3057 0.0000 (   396 PWs)   bands (ev):

   -17.0245  -6.9439  -4.7939  -4.3295   6.0210   7.7437   8.9007   9.3215

          k = 0.0000 0.2717 0.0000 (   396 PWs)   bands (ev):

   -17.3662  -6.1661  -5.1903  -4.0352   5.5486   8.4556   8.9646   9.0184

          k = 0.0000 0.2377 0.0000 (   404 PWs)   bands (ev):

   -17.6705  -5.5462  -5.4189  -3.7206   5.1311   8.3981   9.1113   9.3930

          k = 0.0000 0.2038 0.0000 (   398 PWs)   bands (ev):

   -17.9338  -5.8557  -4.6726  -3.4043   4.7692   8.0791   9.2035  10.0941

          k = 0.0000 0.1698 0.0000 (   402 PWs)   bands (ev):

   -18.1577  -6.1206  -4.0025  -3.0938   4.4627   7.7933   9.2447  10.1278

          k = 0.0000 0.1358 0.0000 (   399 PWs)   bands (ev):

   -18.3410  -6.3384  -3.3918  -2.8006   4.2119   7.5562   9.2777   9.8903

          k = 0.0000 0.1019 0.0000 (   403 PWs)   bands (ev):

   -18.4842  -6.5087  -2.8973  -2.5319   4.0168   7.3706   9.2620   9.6972

          k = 0.0000 0.0679 0.0000 (   407 PWs)   bands (ev):

   -18.5865  -6.6316  -2.5065  -2.3373   3.8774   7.2373   9.2465   9.5478

          k = 0.0000 0.0340 0.0000 (   405 PWs)   bands (ev):

   -18.6475  -6.6976  -2.2615  -2.2068   3.7938   7.1596   9.2423   9.3378

          k = 0.0000 0.0000 0.0000 (   397 PWs)   bands (ev):

   -18.6679  -6.7212  -2.1510  -2.1510   3.7660   7.1331   9.2549   9.2549

     Writing output data file /scratch/groups/saraswat/aravind2/qe/graphene/Graphene_1x1_PBE.save/
 
     init_run     :      0.10s CPU      0.13s WALL (       1 calls)
     electrons    :      1.27s CPU      1.33s WALL (       1 calls)

     Called by init_run:
     wfcinit      :      0.00s CPU      0.00s WALL (       1 calls)
     potinit      :      0.03s CPU      0.03s WALL (       1 calls)
     hinit0       :      0.05s CPU      0.05s WALL (       1 calls)

     Called by electrons:
     c_bands      :      1.27s CPU      1.33s WALL (       1 calls)
     v_of_rho     :      0.03s CPU      0.03s WALL (       1 calls)
     newd         :      0.01s CPU      0.01s WALL (       1 calls)

     Called by c_bands:
     init_us_2    :      0.00s CPU      0.00s WALL (      48 calls)
     cegterg      :      1.16s CPU      1.19s WALL (      59 calls)

     Called by sum_band:

     Called by *egterg:
     h_psi        :      0.95s CPU      0.98s WALL (     946 calls)
     s_psi        :      0.02s CPU      0.02s WALL (     946 calls)
     g_psi        :      0.01s CPU      0.01s WALL (     839 calls)
     cdiaghg      :      0.13s CPU      0.14s WALL (     887 calls)

     Called by h_psi:
     h_psi:calbec :      0.02s CPU      0.02s WALL (     946 calls)
     vloc_psi     :      0.90s CPU      0.93s WALL (     946 calls)
     add_vuspsi   :      0.02s CPU      0.02s WALL (     946 calls)

     General routines
     calbec       :      0.02s CPU      0.02s WALL (     946 calls)
     fft          :      0.01s CPU      0.02s WALL (      12 calls)
     ffts         :      0.00s CPU      0.00s WALL (       1 calls)
     fftw         :      0.81s CPU      0.83s WALL (    9470 calls)
     interpolate  :      0.00s CPU      0.00s WALL (       1 calls)
     davcio       :      0.00s CPU      0.01s WALL (      96 calls)
 
     Parallel routines
 
     PWSCF        :      1.65s CPU      2.85s WALL

 
   This run was terminated on:  16:56:59  30May2020            

=------------------------------------------------------------------------------=
   JOB DONE.
=------------------------------------------------------------------------------=
