
     Program PWSCF v.6.5 starts on 30May2020 at 16:49:55 

     This program is part of the open-source Quantum ESPRESSO suite
     for quantum simulation of materials; please cite
         "P. Giannozzi et al., J. Phys.:Condens. Matter 21 395502 (2009);
         "P. Giannozzi et al., J. Phys.:Condens. Matter 29 465901 (2017);
          URL http://www.quantum-espresso.org", 
     in publications or presentations arising from this work. More details at
     http://www.quantum-espresso.org/quote

     Parallel version (MPI), running on     1 processors

     MPI processes distributed on     1 nodes
     Waiting for input...
     Reading input from standard input

     Current dimensions of program PWSCF are:
     Max number of different atomic species (ntypx) = 10
     Max number of k-points (npk) =  40000
     Max angular momentum in pseudopotentials (lmaxx) =  3

     Atomic positions and unit cell read from directory:
     /scratch/groups/saraswat/aravind2/qe/graphene/Graphene_1x1_PBE.save/                                                                                                                                                                                            
 
               file C.pbe-rrkjus.UPF: wavefunction(s)  2S 2P renormalized

     Subspace diagonalization in iterative solution of the eigenvalue problem:
     a serial algorithm will be used

 
     G-vector sticks info
     --------------------
     sticks:   dense  smooth     PW     G-vecs:    dense   smooth      PW
     Sum         301     121     37                12531     3147     647
 


     bravais-lattice index     =            4
     lattice parameter (alat)  =       4.6540  a.u.
     unit-cell volume          =     261.8973 (a.u.)^3
     number of atoms/cell      =            2
     number of atomic types    =            1
     number of electrons       =         8.00
     number of Kohn-Sham states=            8
     kinetic-energy cutoff     =      20.0000  Ry
     charge density cutoff     =     200.0000  Ry
     Exchange-correlation= SLA PW PBE PBE
                           (   1   4   3   4   0   0   0)

     celldm(1)=   4.654000  celldm(2)=   0.000000  celldm(3)=   3.000000
     celldm(4)=   0.000000  celldm(5)=   0.000000  celldm(6)=   0.000000

     crystal axes: (cart. coord. in units of alat)
               a(1) = (   1.000000   0.000000   0.000000 )  
               a(2) = (  -0.500000   0.866025   0.000000 )  
               a(3) = (   0.000000   0.000000   3.000000 )  

     reciprocal axes: (cart. coord. in units 2 pi/alat)
               b(1) = (  1.000000  0.577350  0.000000 )  
               b(2) = (  0.000000  1.154701  0.000000 )  
               b(3) = (  0.000000  0.000000  0.333333 )  


     PseudoPot. # 1 for C  read from file:
     /home/groups/saraswat/qe-6.5/pseudo/C.pbe-rrkjus.UPF
     MD5 check sum: c9ac5a99bc85b198593446162950cd17
     Pseudo is Ultrasoft, Zval =  4.0
     Generated by new atomic code, or converted to UPF format
     Using radial grid of  627 points,  4 beta functions with: 
                l(1) =   0
                l(2) =   0
                l(3) =   1
                l(4) =   1
     Q(r) pseudized with 0 coefficients 


     atomic species   valence    mass     pseudopotential
        C              4.00    12.01070     C ( 1.00)

     24 Sym. Ops., with inversion, found (12 have fractional translation)



   Cartesian axes

     site n.     atom                  positions (alat units)
         1           C   tau(   1) = (   0.0000000   0.0000000   0.0000000  )
         2           C   tau(   2) = (   0.0000000   0.5773503   0.0000000  )

     number of k points=    19 (tetrahedron method)
                       cart. coord. in units 2pi/alat
        k(    1) = (   0.0000000   0.0000000   0.0000000), wk =   0.0138889
        k(    2) = (   0.0000000   0.0962250   0.0000000), wk =   0.0833333
        k(    3) = (   0.0000000   0.1924501   0.0000000), wk =   0.0833333
        k(    4) = (   0.0000000   0.2886751   0.0000000), wk =   0.0833333
        k(    5) = (   0.0000000   0.3849002   0.0000000), wk =   0.0833333
        k(    6) = (   0.0000000   0.4811252   0.0000000), wk =   0.0833333
        k(    7) = (   0.0000000  -0.5773503   0.0000000), wk =   0.0416667
        k(    8) = (   0.0833333   0.1443376   0.0000000), wk =   0.0833333
        k(    9) = (   0.0833333   0.2405626   0.0000000), wk =   0.1666667
        k(   10) = (   0.0833333   0.3367877   0.0000000), wk =   0.1666667
        k(   11) = (   0.0833333   0.4330127   0.0000000), wk =   0.1666667
        k(   12) = (   0.0833333   0.5292377   0.0000000), wk =   0.1666667
        k(   13) = (   0.1666667   0.2886751   0.0000000), wk =   0.0833333
        k(   14) = (   0.1666667   0.3849002   0.0000000), wk =   0.1666667
        k(   15) = (   0.1666667   0.4811252   0.0000000), wk =   0.1666667
        k(   16) = (   0.1666667   0.5773503   0.0000000), wk =   0.0833333
        k(   17) = (   0.2500000   0.4330127   0.0000000), wk =   0.0833333
        k(   18) = (   0.2500000   0.5292377   0.0000000), wk =   0.1666667
        k(   19) = (   0.3333333   0.5773503   0.0000000), wk =   0.0277778

     Dense  grid:    12531 G-vectors     FFT dimensions: (  24,  24,  64)

     Smooth grid:     3147 G-vectors     FFT dimensions: (  15,  15,  40)

     Estimated max dynamical RAM per process >      13.13 MB

     The potential is recalculated from file :
     /scratch/groups/saraswat/aravind2/qe/graphene/Graphene_1x1_PBE.save/charge-density


     negative rho (up, down):  3.199E-06 0.000E+00
     Starting wfcs are    8 randomized atomic wfcs

     Band Structure Calculation
     Davidson diagonalization with overlap

     ethr =  1.25E-10,  avg # of iterations = 17.0

     total cpu time spent up to now is        0.9 secs

     End of band structure calculation

          k = 0.0000 0.0000 0.0000 (   397 PWs)   bands (ev):

   -18.6679  -6.7212  -2.1510  -2.1510   3.7660   7.1331   9.2549   9.2549

          k = 0.0000 0.0962 0.0000 (   403 PWs)   bands (ev):

   -18.5041  -6.5323  -2.8229  -2.4941   3.9897   7.3448   9.2597   9.6694

          k = 0.0000 0.1925 0.0000 (   402 PWs)   bands (ev):

   -18.0131  -5.9493  -4.4476  -3.3003   4.6608   7.9788   9.2121  10.3139

          k = 0.0000 0.2887 0.0000 (   396 PWs)   bands (ev):

   -17.2001  -6.5537  -4.9972  -4.1848   5.7779   8.1281   8.9601   9.1117

          k = 0.0000 0.3849 0.0000 (   398 PWs)   bands (ev):

   -16.0800  -8.7587  -4.9209  -3.7274   5.8403   7.3331   8.6298  10.5305

          k = 0.0000 0.4811 0.0000 (   392 PWs)   bands (ev):

   -14.6804 -10.8729  -5.3885  -2.2909   3.6957   8.3725   9.3494  12.3278

          k = 0.0000-0.5774 0.0000 (   390 PWs)   bands (ev):

   -13.4157 -12.3789  -5.5473  -1.4433   2.6003   8.2921  11.6747  11.8196

          k = 0.0833 0.1443 0.0000 (   403 PWs)   bands (ev):

   -18.1765  -6.1472  -3.8425  -3.1865   4.4374   7.7687   9.5455  10.1341

          k = 0.0833 0.2406 0.0000 (   405 PWs)   bands (ev):

   -17.5248  -5.5633  -5.3789  -4.1833   5.3319   8.5830   9.0596   9.7123

          k = 0.0833 0.3368 0.0000 (   392 PWs)   bands (ev):

   -16.5577  -7.6323  -5.0640  -4.2576   6.6703   6.8782   9.4939   9.8743

          k = 0.0833 0.4330 0.0000 (   395 PWs)   bands (ev):

   -15.2952  -9.7664  -5.7019  -2.8736   4.6485   8.4391   9.2213  11.4643

          k = 0.0833 0.5292 0.0000 (   392 PWs)   bands (ev):

   -13.8132 -11.7153  -6.0317  -1.5518   2.8727   9.0393  10.6563  13.2015

          k = 0.1667 0.2887 0.0000 (   399 PWs)   bands (ev):

   -16.7183  -6.8927  -5.5510  -4.4383   6.4489   7.3167   9.6189  10.8979

          k = 0.1667 0.3849 0.0000 (   392 PWs)   bands (ev):

   -15.6073  -8.6257  -6.6003  -3.1790   5.3624   8.0051  10.9362  11.1601

          k = 0.1667 0.4811 0.0000 (   394 PWs)   bands (ev):

   -14.2295 -10.5404  -7.1823  -1.7478   3.4343   9.9824  10.9643  12.2659

          k = 0.1667 0.5774 0.0000 (   390 PWs)   bands (ev):

   -12.9947 -11.9777  -7.3657  -0.8506   2.3640  10.8632  12.2591  12.4406

          k = 0.2500 0.4330 0.0000 (   391 PWs)   bands (ev):

   -14.3778  -9.6653  -8.0833  -1.8350   3.7389   9.7658  11.8526  13.1525

          k = 0.2500 0.5292 0.0000 (   392 PWs)   bands (ev):

   -12.9540 -11.0869  -8.7936  -0.4448   2.2133  11.8952  11.9575  13.1351

          k = 0.3333 0.5774 0.0000 (   381 PWs)   bands (ev):

   -11.7300 -11.7300  -9.6761   0.9204   0.9204  11.5853  13.6509  13.6509

     the Fermi energy is     0.9204 ev

     Writing output data file /scratch/groups/saraswat/aravind2/qe/graphene/Graphene_1x1_PBE.save/
 
     init_run     :      0.10s CPU      0.13s WALL (       1 calls)
     electrons    :      0.56s CPU      0.59s WALL (       1 calls)

     Called by init_run:
     wfcinit      :      0.00s CPU      0.00s WALL (       1 calls)
     potinit      :      0.03s CPU      0.03s WALL (       1 calls)
     hinit0       :      0.05s CPU      0.05s WALL (       1 calls)

     Called by electrons:
     c_bands      :      0.55s CPU      0.58s WALL (       1 calls)
     v_of_rho     :      0.03s CPU      0.03s WALL (       1 calls)
     newd         :      0.01s CPU      0.01s WALL (       1 calls)

     Called by c_bands:
     init_us_2    :      0.00s CPU      0.00s WALL (      19 calls)
     cegterg      :      0.51s CPU      0.52s WALL (      22 calls)

     Called by sum_band:

     Called by *egterg:
     h_psi        :      0.41s CPU      0.43s WALL (     364 calls)
     s_psi        :      0.01s CPU      0.01s WALL (     364 calls)
     g_psi        :      0.00s CPU      0.00s WALL (     323 calls)
     cdiaghg      :      0.06s CPU      0.06s WALL (     342 calls)

     Called by h_psi:
     h_psi:calbec :      0.01s CPU      0.01s WALL (     364 calls)
     vloc_psi     :      0.39s CPU      0.41s WALL (     364 calls)
     add_vuspsi   :      0.01s CPU      0.01s WALL (     364 calls)

     General routines
     calbec       :      0.01s CPU      0.01s WALL (     364 calls)
     fft          :      0.01s CPU      0.01s WALL (      12 calls)
     ffts         :      0.00s CPU      0.00s WALL (       1 calls)
     fftw         :      0.35s CPU      0.37s WALL (    3626 calls)
     interpolate  :      0.00s CPU      0.00s WALL (       1 calls)
     davcio       :      0.00s CPU      0.00s WALL (      38 calls)
 
     Parallel routines
 
     PWSCF        :      0.87s CPU      1.59s WALL

 
   This run was terminated on:  16:49:57  30May2020            

=------------------------------------------------------------------------------=
   JOB DONE.
=------------------------------------------------------------------------------=
