
     Program PWSCF v.6.5 starts on 30May2020 at 16:49:46 

     This program is part of the open-source Quantum ESPRESSO suite
     for quantum simulation of materials; please cite
         "P. Giannozzi et al., J. Phys.:Condens. Matter 21 395502 (2009);
         "P. Giannozzi et al., J. Phys.:Condens. Matter 29 465901 (2017);
          URL http://www.quantum-espresso.org", 
     in publications or presentations arising from this work. More details at
     http://www.quantum-espresso.org/quote

     Parallel version (MPI), running on     1 processors

     MPI processes distributed on     1 nodes
     Waiting for input...
     Reading input from standard input

     Current dimensions of program PWSCF are:
     Max number of different atomic species (ntypx) = 10
     Max number of k-points (npk) =  40000
     Max angular momentum in pseudopotentials (lmaxx) =  3
               file C.pbe-rrkjus.UPF: wavefunction(s)  2S 2P renormalized

     Subspace diagonalization in iterative solution of the eigenvalue problem:
     a serial algorithm will be used

 
     G-vector sticks info
     --------------------
     sticks:   dense  smooth     PW     G-vecs:    dense   smooth      PW
     Sum         301     121     37                12531     3147     647
 


     bravais-lattice index     =            4
     lattice parameter (alat)  =       4.6540  a.u.
     unit-cell volume          =     261.8973 (a.u.)^3
     number of atoms/cell      =            2
     number of atomic types    =            1
     number of electrons       =         8.00
     number of Kohn-Sham states=            8
     kinetic-energy cutoff     =      20.0000  Ry
     charge density cutoff     =     200.0000  Ry
     convergence threshold     =      1.0E-08
     mixing beta               =       0.7000
     number of iterations used =            8  plain     mixing
     Exchange-correlation= SLA PW PBE PBE
                           (   1   4   3   4   0   0   0)

     celldm(1)=   4.654000  celldm(2)=   0.000000  celldm(3)=   3.000000
     celldm(4)=   0.000000  celldm(5)=   0.000000  celldm(6)=   0.000000

     crystal axes: (cart. coord. in units of alat)
               a(1) = (   1.000000   0.000000   0.000000 )  
               a(2) = (  -0.500000   0.866025   0.000000 )  
               a(3) = (   0.000000   0.000000   3.000000 )  

     reciprocal axes: (cart. coord. in units 2 pi/alat)
               b(1) = (  1.000000  0.577350  0.000000 )  
               b(2) = (  0.000000  1.154701  0.000000 )  
               b(3) = (  0.000000  0.000000  0.333333 )  


     PseudoPot. # 1 for C  read from file:
     /home/groups/saraswat/qe-6.5/pseudo/C.pbe-rrkjus.UPF
     MD5 check sum: c9ac5a99bc85b198593446162950cd17
     Pseudo is Ultrasoft, Zval =  4.0
     Generated by new atomic code, or converted to UPF format
     Using radial grid of  627 points,  4 beta functions with: 
                l(1) =   0
                l(2) =   0
                l(3) =   1
                l(4) =   1
     Q(r) pseudized with 0 coefficients 


     atomic species   valence    mass     pseudopotential
        C              4.00    12.01070     C ( 1.00)

     24 Sym. Ops., with inversion, found (12 have fractional translation)



   Cartesian axes

     site n.     atom                  positions (alat units)
         1           C   tau(   1) = (   0.0000000   0.0000000   0.0000000  )
         2           C   tau(   2) = (   0.0000000   0.5773503   0.0000000  )

     number of k points=    12 (tetrahedron method)
                       cart. coord. in units 2pi/alat
        k(    1) = (   0.0000000   0.0000000   0.0000000), wk =   0.0246914
        k(    2) = (   0.0000000   0.1283001   0.0000000), wk =   0.1481481
        k(    3) = (   0.0000000   0.2566001   0.0000000), wk =   0.1481481
        k(    4) = (   0.0000000   0.3849002   0.0000000), wk =   0.1481481
        k(    5) = (   0.0000000   0.5132002   0.0000000), wk =   0.1481481
        k(    6) = (   0.1111111   0.1924501   0.0000000), wk =   0.1481481
        k(    7) = (   0.1111111   0.3207501   0.0000000), wk =   0.2962963
        k(    8) = (   0.1111111   0.4490502   0.0000000), wk =   0.2962963
        k(    9) = (   0.1111111   0.5773503   0.0000000), wk =   0.1481481
        k(   10) = (   0.2222222   0.3849002   0.0000000), wk =   0.1481481
        k(   11) = (   0.2222222   0.5132002   0.0000000), wk =   0.2962963
        k(   12) = (   0.3333333   0.5773503   0.0000000), wk =   0.0493827

     Dense  grid:    12531 G-vectors     FFT dimensions: (  24,  24,  64)

     Smooth grid:     3147 G-vectors     FFT dimensions: (  15,  15,  40)

     Estimated max dynamical RAM per process >      17.24 MB

     Initial potential from superposition of free atoms

     starting charge    7.99989, renormalised to    8.00000
     Starting wfcs are    8 randomized atomic wfcs

     total cpu time spent up to now is        0.3 secs

     Self-consistent Calculation

     iteration #  1     ecut=    20.00 Ry     beta= 0.70
     Davidson diagonalization with overlap
     ethr =  1.00E-02,  avg # of iterations =  4.6

     negative rho (up, down):  1.070E-07 0.000E+00

     total cpu time spent up to now is        0.5 secs

     total energy              =     -22.73535075 Ry
     Harris-Foulkes estimate   =     -22.85391870 Ry
     estimated scf accuracy    <       0.19851312 Ry

     iteration #  2     ecut=    20.00 Ry     beta= 0.70
     Davidson diagonalization with overlap
     ethr =  2.48E-03,  avg # of iterations =  3.2

     negative rho (up, down):  6.721E-07 0.000E+00

     total cpu time spent up to now is        0.7 secs

     total energy              =     -22.76498207 Ry
     Harris-Foulkes estimate   =     -22.76516851 Ry
     estimated scf accuracy    <       0.00252207 Ry

     iteration #  3     ecut=    20.00 Ry     beta= 0.70
     Davidson diagonalization with overlap
     ethr =  3.15E-05,  avg # of iterations =  4.2

     negative rho (up, down):  3.762E-06 0.000E+00

     total cpu time spent up to now is        0.8 secs

     total energy              =     -22.76525832 Ry
     Harris-Foulkes estimate   =     -22.76524071 Ry
     estimated scf accuracy    <       0.00014058 Ry

     iteration #  4     ecut=    20.00 Ry     beta= 0.70
     Davidson diagonalization with overlap
     ethr =  1.76E-06,  avg # of iterations =  2.6

     negative rho (up, down):  3.547E-06 0.000E+00

     total cpu time spent up to now is        0.9 secs

     total energy              =     -22.76526225 Ry
     Harris-Foulkes estimate   =     -22.76526168 Ry
     estimated scf accuracy    <       0.00000072 Ry

     iteration #  5     ecut=    20.00 Ry     beta= 0.70
     Davidson diagonalization with overlap
     ethr =  9.02E-09,  avg # of iterations =  2.2

     negative rho (up, down):  3.255E-06 0.000E+00

     total cpu time spent up to now is        1.0 secs

     total energy              =     -22.76526246 Ry
     Harris-Foulkes estimate   =     -22.76526244 Ry
     estimated scf accuracy    <       0.00000002 Ry

     iteration #  6     ecut=    20.00 Ry     beta= 0.70
     Davidson diagonalization with overlap
     ethr =  2.20E-10,  avg # of iterations =  2.0

     negative rho (up, down):  3.199E-06 0.000E+00

     total cpu time spent up to now is        1.1 secs

     End of self-consistent calculation

          k = 0.0000 0.0000 0.0000 (   397 PWs)   bands (ev):

   -18.6679  -6.7212  -2.1511  -2.1511   3.7662   7.1332   9.2548   9.2548

          k = 0.0000 0.1283 0.0000 (   399 PWs)   bands (ev):

   -18.3764  -6.3802  -3.2769  -2.7260   4.1640   7.5105   9.2817   9.8446

          k = 0.0000 0.2566 0.0000 (   394 PWs)   bands (ev):

   -17.5060  -5.8247  -5.3525  -3.8888   5.3565   8.5401   9.0515   9.0673

          k = 0.0000 0.3849 0.0000 (   398 PWs)   bands (ev):

   -16.0800  -8.7588  -4.9210  -3.7274   5.8403   7.3333   8.6298  10.5305

          k = 0.0000 0.5132 0.0000 (   396 PWs)   bands (ev):

   -14.1735 -11.5156  -5.4831  -1.8710   3.1346   8.3278  10.1019  12.9749

          k = 0.1111 0.1925 0.0000 (   409 PWs)   bands (ev):

   -17.7959  -5.6975  -4.8365  -3.8917   4.9596   8.2596   9.7280   9.8551

          k = 0.1111 0.3208 0.0000 (   398 PWs)   bands (ev):

   -16.6472  -7.2878  -5.2681  -4.3580   6.5475   7.1137   9.7370  10.0295

          k = 0.1111 0.4491 0.0000 (   389 PWs)   bands (ev):

   -14.9679 -10.0510  -6.1384  -2.5204   4.2487   8.9075   9.7025  11.7937

          k = 0.1111 0.5774 0.0000 (   386 PWs)   bands (ev):

   -13.2291 -12.1943  -6.4422  -1.1764   2.5171   9.5420  11.9380  12.0978

          k = 0.2222 0.3849 0.0000 (   395 PWs)   bands (ev):

   -15.2443  -8.8118  -7.2828  -2.7718   4.8708   8.5216  11.2621  12.3516

          k = 0.2222 0.5132 0.0000 (   394 PWs)   bands (ev):

   -13.3939 -10.9232  -8.2822  -0.8916   2.6247  11.2255  12.1608  12.4163

          k = 0.3333 0.5774 0.0000 (   381 PWs)   bands (ev):

   -11.7300 -11.7300  -9.6761   0.9204   0.9204  11.5854  13.6509  13.6510

     the Fermi energy is     0.9204 ev

!    total energy              =     -22.76526245 Ry
     Harris-Foulkes estimate   =     -22.76526245 Ry
     estimated scf accuracy    <          3.6E-10 Ry

     The total energy is the sum of the following terms:

     one-electron contribution =     -56.38970621 Ry
     hartree contribution      =      30.33222310 Ry
     xc contribution           =      -7.01842888 Ry
     ewald contribution        =      10.31064953 Ry

     convergence has been achieved in   6 iterations

     Writing output data file /scratch/groups/saraswat/aravind2/qe/graphene/Graphene_1x1_PBE.save/
 
     init_run     :      0.13s CPU      0.16s WALL (       1 calls)
     electrons    :      0.76s CPU      0.87s WALL (       1 calls)

     Called by init_run:
     wfcinit      :      0.03s CPU      0.03s WALL (       1 calls)
     potinit      :      0.03s CPU      0.04s WALL (       1 calls)
     hinit0       :      0.05s CPU      0.06s WALL (       1 calls)

     Called by electrons:
     c_bands      :      0.47s CPU      0.48s WALL (       6 calls)
     sum_band     :      0.14s CPU      0.15s WALL (       6 calls)
     v_of_rho     :      0.13s CPU      0.14s WALL (       7 calls)
     newd         :      0.04s CPU      0.05s WALL (       7 calls)
     mix_rho      :      0.01s CPU      0.01s WALL (       6 calls)

     Called by c_bands:
     init_us_2    :      0.01s CPU      0.01s WALL (     156 calls)
     cegterg      :      0.45s CPU      0.46s WALL (      72 calls)

     Called by sum_band:
     sum_band:bec :      0.00s CPU      0.00s WALL (      72 calls)
     addusdens    :      0.03s CPU      0.04s WALL (       6 calls)

     Called by *egterg:
     h_psi        :      0.39s CPU      0.40s WALL (     308 calls)
     s_psi        :      0.01s CPU      0.01s WALL (     308 calls)
     g_psi        :      0.00s CPU      0.00s WALL (     224 calls)
     cdiaghg      :      0.04s CPU      0.04s WALL (     296 calls)

     Called by h_psi:
     h_psi:calbec :      0.01s CPU      0.01s WALL (     308 calls)
     vloc_psi     :      0.37s CPU      0.38s WALL (     308 calls)
     add_vuspsi   :      0.01s CPU      0.01s WALL (     308 calls)

     General routines
     calbec       :      0.01s CPU      0.01s WALL (     380 calls)
     fft          :      0.04s CPU      0.05s WALL (      88 calls)
     ffts         :      0.00s CPU      0.00s WALL (      13 calls)
     fftw         :      0.38s CPU      0.39s WALL (    3838 calls)
     interpolate  :      0.00s CPU      0.00s WALL (       7 calls)
 
     Parallel routines
 
     PWSCF        :      1.06s CPU      2.21s WALL

 
   This run was terminated on:  16:49:49  30May2020            

=------------------------------------------------------------------------------=
   JOB DONE.
=------------------------------------------------------------------------------=
