
     Program PWSCF v.6.0 (svn rev. 13079) starts on 19Dec2016 at 21:13: 1 

     This program is part of the open-source Quantum ESPRESSO suite
     for quantum simulation of materials; please cite
         "P. Giannozzi et al., J. Phys.:Condens. Matter 21 395502 (2009);
          URL http://www.quantum-espresso.org", 
     in publications or presentations arising from this work. More details at
     http://www.quantum-espresso.org/quote

     Parallel version (MPI), running on     4 processors
     R & G space division:  proc/nbgrp/npool/nimage =       4
     Waiting for input...
     Reading input from standard input

     Current dimensions of program PWSCF are:
     Max number of different atomic species (ntypx) = 10
     Max number of k-points (npk) =  40000
     Max angular momentum in pseudopotentials (lmaxx) =  3
               file H.pz-vbc.UPF: wavefunction(s)  1S renormalized

     gamma-point specific algorithms are used

     Subspace diagonalization in iterative solution of the eigenvalue problem:
     a serial algorithm will be used

 
     Parallelization info
     --------------------
     sticks:   dense  smooth     PW     G-vecs:    dense   smooth      PW
     Min        3261    3261    815               232435   232435   29030
     Max        3264    3264    818               232436   232436   29032
     Sum       13053   13053   3265               929743   929743  116125
 


     bravais-lattice index     =            6
     lattice parameter (alat)  =      32.0000  a.u.
     unit-cell volume          =   27197.4400 (a.u.)^3
     number of atoms/cell      =           12
     number of atomic types    =            2
     number of electrons       =        30.00
     number of Kohn-Sham states=           15
     kinetic-energy cutoff     =      40.0000  Ry
     charge density cutoff     =     160.0000  Ry
     convergence threshold     =      1.0E-08
     mixing beta               =       0.6000
     number of iterations used =            8  plain     mixing
     Exchange-correlation      =  SLA  PZ   NOGX NOGC ( 1  1  0  0 0 0)

     celldm(1)=  32.000000  celldm(2)=   0.000000  celldm(3)=   0.830000
     celldm(4)=   0.000000  celldm(5)=   0.000000  celldm(6)=   0.000000

     crystal axes: (cart. coord. in units of alat)
               a(1) = (   1.000000   0.000000   0.000000 )  
               a(2) = (   0.000000   1.000000   0.000000 )  
               a(3) = (   0.000000   0.000000   0.830000 )  

     reciprocal axes: (cart. coord. in units 2 pi/alat)
               b(1) = (  1.000000  0.000000  0.000000 )  
               b(2) = (  0.000000  1.000000  0.000000 )  
               b(3) = (  0.000000  0.000000  1.204819 )  


     PseudoPot. # 1 for H  read from file:
     ./H.pz-vbc.UPF
     MD5 check sum: 90becb985b714f09656c73597998d266
     Pseudo is Norm-conserving, Zval =  1.0
     Generated by new atomic code, or converted to UPF format
     Using radial grid of  131 points,  0 beta functions with: 

     PseudoPot. # 2 for C  read from file:
     ./C.pz-vbc.UPF
     MD5 check sum: ab53dd623bfeb79c5a7b057bc96eae20
     Pseudo is Norm-conserving, Zval =  4.0
     Generated by new atomic code, or converted to UPF format
     Using radial grid of  269 points,  1 beta functions with: 
                l(1) =   0

     atomic species   valence    mass     pseudopotential
        H              1.00     1.00000     H ( 1.00)
        C              4.00    12.01000     C ( 1.00)

     No symmetry found



   Cartesian axes

     site n.     atom                  positions (alat units)
         1           C   tau(   1) = (   0.3326627   0.3732718   0.2952697  )
         2           C   tau(   2) = (   0.4043454   0.4973890   0.2952697  )
         3           C   tau(   3) = (   0.4760191   0.4560089   0.2952697  )
         4           C   tau(   4) = (   0.4760166   0.3732585   0.2952697  )
         5           C   tau(   5) = (   0.4043364   0.3318871   0.2952697  )
         6           C   tau(   6) = (   0.3326674   0.4560225   0.2952697  )
         7           H   tau(   7) = (   0.4043574   0.5617361   0.2952697  )
         8           H   tau(   8) = (   0.5317432   0.4881776   0.2952697  )
         9           H   tau(   9) = (   0.5317393   0.3410894   0.2952697  )
        10           H   tau(  10) = (   0.4043332   0.2675452   0.2952697  )
        11           H   tau(  11) = (   0.2769368   0.3411096   0.2952697  )
        12           H   tau(  12) = (   0.2769507   0.4882003   0.2952697  )

     number of k points=     1
                       cart. coord. in units 2pi/alat
        k(    1) = (   0.0000000   0.0000000   0.0000000), wk =   2.0000000

     Dense  grid:   464872 G-vectors     FFT dimensions: ( 135, 135, 108)

     Estimated max dynamical RAM per process >     100.12Mb

     Estimated total allocated dynamical RAM >     400.47Mb

     Initial potential from superposition of free atoms
     Check: negative starting charge=   -0.032124

     starting charge   29.99967, renormalised to   30.00000

     negative rho (up, down):  3.212E-02 0.000E+00
     Starting wfc are   30 randomized atomic wfcs

     total cpu time spent up to now is        0.9 secs

     per-process dynamical memory:    72.0 Mb

     Self-consistent Calculation

     iteration #  1     ecut=    40.00 Ry     beta=0.60
     Davidson diagonalization with overlap
     ethr =  1.00E-02,  avg # of iterations =  2.0

     negative rho (up, down):  1.257E-02 0.000E+00

     total cpu time spent up to now is        1.7 secs

     total energy              =     -74.50870487 Ry
     Harris-Foulkes estimate   =     -75.46816254 Ry
     estimated scf accuracy    <       1.52366512 Ry

     iteration #  2     ecut=    40.00 Ry     beta=0.60
     Davidson diagonalization with overlap
     ethr =  5.08E-03,  avg # of iterations =  2.0

     negative rho (up, down):  6.327E-03 0.000E+00

     total cpu time spent up to now is        2.4 secs

     total energy              =     -74.80717056 Ry
     Harris-Foulkes estimate   =     -74.92805154 Ry
     estimated scf accuracy    <       0.21769576 Ry

     iteration #  3     ecut=    40.00 Ry     beta=0.60
     Davidson diagonalization with overlap
     ethr =  7.26E-04,  avg # of iterations =  2.0

     negative rho (up, down):  1.199E-03 0.000E+00

     total cpu time spent up to now is        3.1 secs

     total energy              =     -74.85169247 Ry
     Harris-Foulkes estimate   =     -74.85983735 Ry
     estimated scf accuracy    <       0.01679931 Ry

     iteration #  4     ecut=    40.00 Ry     beta=0.60
     Davidson diagonalization with overlap
     ethr =  5.60E-05,  avg # of iterations =  2.0

     negative rho (up, down):  2.673E-04 0.000E+00

     total cpu time spent up to now is        3.9 secs

     total energy              =     -74.85443890 Ry
     Harris-Foulkes estimate   =     -74.85447400 Ry
     estimated scf accuracy    <       0.00020001 Ry

     iteration #  5     ecut=    40.00 Ry     beta=0.60
     Davidson diagonalization with overlap
     ethr =  6.67E-07,  avg # of iterations =  2.0

     negative rho (up, down):  4.362E-08 0.000E+00

     total cpu time spent up to now is        4.6 secs

     total energy              =     -74.85446187 Ry
     Harris-Foulkes estimate   =     -74.85446526 Ry
     estimated scf accuracy    <       0.00001701 Ry

     iteration #  6     ecut=    40.00 Ry     beta=0.60
     Davidson diagonalization with overlap
     ethr =  5.67E-08,  avg # of iterations =  2.0

     total cpu time spent up to now is        5.3 secs

     total energy              =     -74.85446421 Ry
     Harris-Foulkes estimate   =     -74.85446438 Ry
     estimated scf accuracy    <       0.00000076 Ry

     iteration #  7     ecut=    40.00 Ry     beta=0.60
     Davidson diagonalization with overlap
     ethr =  2.54E-09,  avg # of iterations =  2.0

     total cpu time spent up to now is        6.0 secs

     total energy              =     -74.85446437 Ry
     Harris-Foulkes estimate   =     -74.85446438 Ry
     estimated scf accuracy    <       0.00000002 Ry

     iteration #  8     ecut=    40.00 Ry     beta=0.60
     Davidson diagonalization with overlap
     ethr =  6.38E-11,  avg # of iterations =  2.0

     total cpu time spent up to now is        6.7 secs

     End of self-consistent calculation

          k = 0.0000 0.0000 0.0000 ( 58063 PWs)   bands (ev):

   -21.0316 -18.2547 -18.2530 -14.7156 -14.7147 -12.8538 -11.0183 -10.9290
   -10.1383 -10.1356  -9.1099  -8.1258  -8.1254  -6.3602  -6.3586

     highest occupied level (ev):    -6.3586

!    total energy              =     -74.85446438 Ry
     Harris-Foulkes estimate   =     -74.85446438 Ry
     estimated scf accuracy    <          4.3E-09 Ry

     The total energy is the sum of the following terms:

     one-electron contribution =    -351.08758457 Ry
     hartree contribution      =     178.35431815 Ry
     xc contribution           =     -24.55635913 Ry
     ewald contribution        =     122.43516117 Ry

     convergence has been achieved in   8 iterations

     Writing output data file Benzene.save
 
     init_run     :      0.83s CPU      0.86s WALL (       1 calls)
     electrons    :      5.84s CPU      5.89s WALL (       1 calls)

     Called by init_run:
     wfcinit      :      0.36s CPU      0.37s WALL (       1 calls)
     potinit      :      0.20s CPU      0.21s WALL (       1 calls)

     Called by electrons:
     c_bands      :      4.05s CPU      4.08s WALL (       8 calls)
     sum_band     :      1.05s CPU      1.05s WALL (       8 calls)
     v_of_rho     :      0.37s CPU      0.37s WALL (       9 calls)
     mix_rho      :      0.29s CPU      0.30s WALL (       8 calls)

     Called by c_bands:
     init_us_2    :      0.02s CPU      0.02s WALL (      17 calls)
     regterg      :      4.03s CPU      4.06s WALL (       8 calls)

     Called by sum_band:

     Called by *egterg:
     h_psi        :      4.07s CPU      4.10s WALL (      25 calls)
     g_psi        :      0.04s CPU      0.04s WALL (      16 calls)
     rdiaghg      :      0.01s CPU      0.01s WALL (      24 calls)

     Called by h_psi:
     h_psi:pot    :      4.04s CPU      4.08s WALL (      25 calls)
     h_psi:calbec :      0.02s CPU      0.02s WALL (      25 calls)
     vloc_psi     :      4.00s CPU      4.03s WALL (      25 calls)
     add_vuspsi   :      0.02s CPU      0.02s WALL (      25 calls)

     General routines
     calbec       :      0.02s CPU      0.02s WALL (      25 calls)
     fft          :      0.58s CPU      0.58s WALL (      35 calls)
     fftw         :      3.97s CPU      4.00s WALL (     454 calls)
     davcio       :      0.00s CPU      0.00s WALL (       1 calls)
 
     Parallel routines
     fft_scatter  :      0.94s CPU      0.95s WALL (     489 calls)
 
     PWSCF        :     6.80s CPU         6.90s WALL

 
   This run was terminated on:  21:13: 8  19Dec2016            

=------------------------------------------------------------------------------=
   JOB DONE.
=------------------------------------------------------------------------------=
