### Running on host: pars11

     Program PWSCF v.6.2 (svn rev. 14038) starts on 13Aug2019 at 19: 2: 3 

     This program is part of the open-source Quantum ESPRESSO suite
     for quantum simulation of materials; please cite
         "P. Giannozzi et al., J. Phys.:Condens. Matter 21 395502 (2009);
         "P. Giannozzi et al., J. Phys.:Condens. Matter 29 465901 (2017);
          URL http://www.quantum-espresso.org", 
     in publications or presentations arising from this work. More details at
     http://www.quantum-espresso.org/quote

     Parallel version (MPI), running on     6 processors

     MPI processes distributed on     1 nodes
     R & G space division:  proc/nbgrp/npool/nimage =       6
     Reading input from nscf.Fe-fm.in

     Current dimensions of program PWSCF are:
     Max number of different atomic species (ntypx) = 10
     Max number of k-points (npk) =  40000
     Max angular momentum in pseudopotentials (lmaxx) =  3

     Atomic positions and unit cell read from directory:
     /temp/matic/pw/Fe-fm/pwscf.save/
 
               file Fe.pbe-nd-rrkjus.UPF: wavefunction(s)  4S renormalized

     Subspace diagonalization in iterative solution of the eigenvalue problem:
     a serial algorithm will be used

 
     Parallelization info
     --------------------
     sticks:   dense  smooth     PW     G-vecs:    dense   smooth      PW
     Min          28      28     10                  234      234      53
     Max          29      29     11                  236      236      54
     Sum         169     169     63                 1409     1409     321
 


     bravais-lattice index     =            3
     lattice parameter (alat)  =       5.4200  a.u.
     unit-cell volume          =      79.6100 (a.u.)^3
     number of atoms/cell      =            1
     number of atomic types    =            1
     number of electrons       =         8.00
     number of Kohn-Sham states=            8
     kinetic-energy cutoff     =      25.0000  Ry
     charge density cutoff     =     100.0000  Ry
     Exchange-correlation      =  SLA  PW   PBE  PBE ( 1  4  3  4 0 0)

     celldm(1)=   5.420000  celldm(2)=   0.000000  celldm(3)=   0.000000
     celldm(4)=   0.000000  celldm(5)=   0.000000  celldm(6)=   0.000000

     crystal axes: (cart. coord. in units of alat)
               a(1) = (   0.500000   0.500000   0.500000 )  
               a(2) = (  -0.500000   0.500000   0.500000 )  
               a(3) = (  -0.500000  -0.500000   0.500000 )  

     reciprocal axes: (cart. coord. in units 2 pi/alat)
               b(1) = (  1.000000  0.000000  1.000000 )  
               b(2) = ( -1.000000  1.000000  0.000000 )  
               b(3) = (  0.000000 -1.000000  1.000000 )  


     PseudoPot. # 1 for Fe read from file:
     /net/terrace/home/matic/pw/pseudo/Fe.pbe-nd-rrkjus.UPF
     MD5 check sum: 23c640529ef232ac9996b4ec1b0ce2fd
     Pseudo is Ultrasoft + core correction, Zval =  8.0
     Generated by new atomic code, or converted to UPF format
     Using radial grid of  957 points,  6 beta functions with: 
                l(1) =   0
                l(2) =   0
                l(3) =   1
                l(4) =   1
                l(5) =   2
                l(6) =   2
     Q(r) pseudized with 0 coefficients 


     atomic species   valence    mass     pseudopotential
        Fe             8.00    55.84700     Fe( 1.00)

     Starting magnetic structure 
     atomic species   magnetization
        Fe           0.500

     48 Sym. Ops., with inversion, found



   Cartesian axes

     site n.     atom                  positions (alat units)
         1           Fe  tau(   1) = (   0.0000000   0.0000000   0.0000000  )

     number of k points=    68 (tetrahedron method)
                       cart. coord. in units 2pi/alat
        k(    1) = (   0.0000000   0.0000000   0.0833333), wk =   0.0034722
        k(    2) = (   0.0000000  -0.0833333   0.1666667), wk =   0.0138889
        k(    3) = (   0.0000000  -0.1666667   0.2500000), wk =   0.0138889
        k(    4) = (   0.0000000  -0.2500000   0.3333333), wk =   0.0138889
        k(    5) = (   0.0000000  -0.3333333   0.4166667), wk =   0.0138889
        k(    6) = (   0.0000000  -0.4166667   0.5000000), wk =   0.0138889
        k(    7) = (  -0.0833333   0.0833333   0.0833333), wk =   0.0046296
        k(    8) = (  -0.0833333  -0.0833333   0.2500000), wk =   0.0138889
        k(    9) = (  -0.0833333  -0.1666667   0.3333333), wk =   0.0277778
        k(   10) = (  -0.0833333  -0.2500000   0.4166667), wk =   0.0277778
        k(   11) = (  -0.0833333  -0.3333333   0.5000000), wk =   0.0277778
        k(   12) = (  -0.0833333   0.5833333  -0.4166667), wk =   0.0138889
        k(   13) = (  -0.1666667   0.1666667   0.0833333), wk =   0.0138889
        k(   14) = (  -0.1666667  -0.1666667   0.4166667), wk =   0.0138889
        k(   15) = (  -0.1666667  -0.2500000   0.5000000), wk =   0.0277778
        k(   16) = (  -0.1666667   0.6666667  -0.4166667), wk =   0.0277778
        k(   17) = (  -0.2500000   0.2500000   0.0833333), wk =   0.0138889
        k(   18) = (  -0.2500000   0.1666667   0.1666667), wk =   0.0138889
        k(   19) = (  -0.2500000   0.7500000  -0.4166667), wk =   0.0138889
        k(   20) = (  -0.2500000   0.6666667  -0.3333333), wk =   0.0138889
        k(   21) = (  -0.3333333   0.3333333   0.0833333), wk =   0.0138889
        k(   22) = (  -0.3333333   0.2500000   0.1666667), wk =   0.0277778
        k(   23) = (  -0.4166667   0.4166667   0.0833333), wk =   0.0138889
        k(   24) = (  -0.4166667   0.3333333   0.1666667), wk =   0.0277778
        k(   25) = (  -0.4166667   0.2500000   0.2500000), wk =   0.0138889
        k(   26) = (   0.5000000  -0.5000000   0.0833333), wk =   0.0069444
        k(   27) = (   0.5000000  -0.5833333   0.1666667), wk =   0.0277778
        k(   28) = (   0.5000000  -0.6666667   0.2500000), wk =   0.0277778
        k(   29) = (   0.4166667  -0.5833333   0.2500000), wk =   0.0138889
        k(   30) = (   0.4166667  -0.6666667   0.3333333), wk =   0.0138889
        k(   31) = (   0.0000000   0.0000000   0.2500000), wk =   0.0034722
        k(   32) = (   0.0000000  -0.0833333   0.3333333), wk =   0.0138889
        k(   33) = (   0.0000000  -0.1666667   0.4166667), wk =   0.0138889
        k(   34) = (   0.0000000  -0.2500000   0.5000000), wk =   0.0138889
        k(   35) = (   0.0000000  -0.3333333   0.5833333), wk =   0.0138889
        k(   36) = (  -0.0833333  -0.0833333   0.4166667), wk =   0.0138889
        k(   37) = (  -0.0833333  -0.1666667   0.5000000), wk =   0.0277778
        k(   38) = (  -0.0833333  -0.2500000   0.5833333), wk =   0.0277778
        k(   39) = (  -0.0833333   0.6666667  -0.3333333), wk =   0.0138889
        k(   40) = (  -0.1666667  -0.1666667   0.5833333), wk =   0.0138889
        k(   41) = (  -0.1666667   0.7500000  -0.3333333), wk =   0.0277778
        k(   42) = (  -0.2500000   0.2500000   0.2500000), wk =   0.0046296
        k(   43) = (  -0.2500000   0.7500000  -0.2500000), wk =   0.0046296
        k(   44) = (  -0.3333333   0.3333333   0.2500000), wk =   0.0138889
        k(   45) = (   0.5833333  -0.5833333   0.2500000), wk =   0.0138889
        k(   46) = (   0.5833333  -0.6666667   0.3333333), wk =   0.0138889
        k(   47) = (   0.5000000  -0.5000000   0.2500000), wk =   0.0069444
        k(   48) = (   0.5000000  -0.5833333   0.3333333), wk =   0.0277778
        k(   49) = (   0.4166667  -0.5833333   0.4166667), wk =   0.0046296
        k(   50) = (   0.0000000   0.0000000   0.4166667), wk =   0.0034722
        k(   51) = (   0.0000000  -0.0833333   0.5000000), wk =   0.0138889
        k(   52) = (   0.0000000  -0.1666667   0.5833333), wk =   0.0138889
        k(   53) = (   0.0000000  -0.2500000   0.6666667), wk =   0.0138889
        k(   54) = (  -0.0833333  -0.0833333   0.5833333), wk =   0.0138889
        k(   55) = (  -0.0833333  -0.1666667   0.6666667), wk =   0.0277778
        k(   56) = (  -0.0833333   0.7500000  -0.2500000), wk =   0.0138889
        k(   57) = (  -0.1666667   0.8333333  -0.2500000), wk =   0.0138889
        k(   58) = (   0.5833333  -0.5833333   0.4166667), wk =   0.0046296
        k(   59) = (   0.5000000  -0.5000000   0.4166667), wk =   0.0069444
        k(   60) = (   0.0000000   0.0000000   0.5833333), wk =   0.0034722
        k(   61) = (   0.0000000  -0.0833333   0.6666667), wk =   0.0138889
        k(   62) = (   0.0000000  -0.1666667   0.7500000), wk =   0.0138889
        k(   63) = (  -0.0833333  -0.0833333   0.7500000), wk =   0.0138889
        k(   64) = (  -0.0833333   0.8333333  -0.1666667), wk =   0.0138889
        k(   65) = (   0.0000000   0.0000000   0.7500000), wk =   0.0034722
        k(   66) = (   0.0000000  -0.0833333   0.8333333), wk =   0.0138889
        k(   67) = (  -0.0833333   0.9166667  -0.0833333), wk =   0.0046296
        k(   68) = (   0.0000000   0.0000000   0.9166667), wk =   0.0034722

     Dense  grid:     1409 G-vectors     FFT dimensions: (  15,  15,  15)

     Estimated max dynamical RAM per process >       1.49 MB

     Estimated total dynamical RAM >       8.93 MB
     Generating pointlists ...
     new r_m :   0.3572 (alat units)  1.9362 (a.u.) for type    1

     Check: negative/imaginary core charge=   -0.000183    0.000000

     The potential is recalculated from file :
     /temp/matic/pw/Fe-fm/pwscf.save/charge-density.dat


     negative rho (up, down):  3.278E-03 9.046E-04
     Starting wfc are    6 randomized atomic wfcs +    2 random wfc

     Band Structure Calculation
     Davidson diagonalization with overlap

     ethr =  1.25E-11,  avg # of iterations = 19.8

     total cpu time spent up to now is        4.0 secs

     End of band structure calculation

     Number of k-points >= 100: set verbosity='high' to print the bands.

     the Fermi energy is    12.9535 ev

     Writing output data file pwscf.save
 
     init_run     :      0.12s CPU      0.12s WALL (       1 calls)
     electrons    :      1.60s CPU      1.66s WALL (       1 calls)

     Called by init_run:
     wfcinit      :      0.00s CPU      0.00s WALL (       1 calls)
     potinit      :      0.00s CPU      0.00s WALL (       1 calls)

     Called by electrons:
     c_bands      :      1.44s CPU      1.51s WALL (       1 calls)
     v_of_rho     :      0.00s CPU      0.00s WALL (       1 calls)
     newd         :      0.00s CPU      0.00s WALL (       1 calls)

     Called by c_bands:
     init_us_2    :      0.00s CPU      0.00s WALL (     136 calls)
     cegterg      :      1.36s CPU      1.42s WALL (     176 calls)

     Called by sum_band:

     Called by *egterg:
     h_psi        :      0.82s CPU      0.87s WALL (    3003 calls)
     s_psi        :      0.00s CPU      0.02s WALL (    3003 calls)
     g_psi        :      0.00s CPU      0.01s WALL (    2691 calls)
     cdiaghg      :      0.39s CPU      0.40s WALL (    2827 calls)

     Called by h_psi:
     h_psi:pot    :      0.80s CPU      0.84s WALL (    3003 calls)
     h_psi:calbec :      0.03s CPU      0.05s WALL (    3003 calls)
     vloc_psi     :      0.74s CPU      0.74s WALL (    3003 calls)
     add_vuspsi   :      0.01s CPU      0.02s WALL (    3003 calls)

     General routines
     calbec       :      0.02s CPU      0.04s WALL (    3003 calls)
     fft          :      0.00s CPU      0.00s WALL (      23 calls)
     fftw         :      0.64s CPU      0.64s WALL (   33212 calls)
     davcio       :      0.00s CPU      0.00s WALL (     272 calls)
 
     Parallel routines
     fft_scatt_xy :      0.10s CPU      0.09s WALL (   33235 calls)
     fft_scatt_yz :      0.22s CPU      0.22s WALL (   33235 calls)
 
     PWSCF        :     2.33s CPU         4.07s WALL

 
   This run was terminated on:  19: 2: 7  13Aug2019            

=------------------------------------------------------------------------------=
   JOB DONE.
=------------------------------------------------------------------------------=
