### Running on host: pars11

     Program PWSCF v.6.2 (svn rev. 14038) starts on 13Aug2019 at 19: 1:57 

     This program is part of the open-source Quantum ESPRESSO suite
     for quantum simulation of materials; please cite
         "P. Giannozzi et al., J. Phys.:Condens. Matter 21 395502 (2009);
         "P. Giannozzi et al., J. Phys.:Condens. Matter 29 465901 (2017);
          URL http://www.quantum-espresso.org", 
     in publications or presentations arising from this work. More details at
     http://www.quantum-espresso.org/quote

     Parallel version (MPI), running on     6 processors

     MPI processes distributed on     1 nodes
     R & G space division:  proc/nbgrp/npool/nimage =       6
     Reading input from scf.Fe-fm.in

     Current dimensions of program PWSCF are:
     Max number of different atomic species (ntypx) = 10
     Max number of k-points (npk) =  40000
     Max angular momentum in pseudopotentials (lmaxx) =  3
               file Fe.pbe-nd-rrkjus.UPF: wavefunction(s)  4S renormalized

     Subspace diagonalization in iterative solution of the eigenvalue problem:
     a serial algorithm will be used

 
     Parallelization info
     --------------------
     sticks:   dense  smooth     PW     G-vecs:    dense   smooth      PW
     Min          28      28     10                  234      234      53
     Max          29      29     11                  236      236      54
     Sum         169     169     63                 1409     1409     321
 


     bravais-lattice index     =            3
     lattice parameter (alat)  =       5.4200  a.u.
     unit-cell volume          =      79.6100 (a.u.)^3
     number of atoms/cell      =            1
     number of atomic types    =            1
     number of electrons       =         8.00
     number of Kohn-Sham states=            8
     kinetic-energy cutoff     =      25.0000  Ry
     charge density cutoff     =     100.0000  Ry
     convergence threshold     =      1.0E-09
     mixing beta               =       0.7000
     number of iterations used =            8  plain     mixing
     Exchange-correlation      =  SLA  PW   PBE  PBE ( 1  4  3  4 0 0)

     celldm(1)=   5.420000  celldm(2)=   0.000000  celldm(3)=   0.000000
     celldm(4)=   0.000000  celldm(5)=   0.000000  celldm(6)=   0.000000

     crystal axes: (cart. coord. in units of alat)
               a(1) = (   0.500000   0.500000   0.500000 )  
               a(2) = (  -0.500000   0.500000   0.500000 )  
               a(3) = (  -0.500000  -0.500000   0.500000 )  

     reciprocal axes: (cart. coord. in units 2 pi/alat)
               b(1) = (  1.000000  0.000000  1.000000 )  
               b(2) = ( -1.000000  1.000000  0.000000 )  
               b(3) = (  0.000000 -1.000000  1.000000 )  


     PseudoPot. # 1 for Fe read from file:
     /net/terrace/home/matic/pw/pseudo/Fe.pbe-nd-rrkjus.UPF
     MD5 check sum: 23c640529ef232ac9996b4ec1b0ce2fd
     Pseudo is Ultrasoft + core correction, Zval =  8.0
     Generated by new atomic code, or converted to UPF format
     Using radial grid of  957 points,  6 beta functions with: 
                l(1) =   0
                l(2) =   0
                l(3) =   1
                l(4) =   1
                l(5) =   2
                l(6) =   2
     Q(r) pseudized with 0 coefficients 


     atomic species   valence    mass     pseudopotential
        Fe             8.00    55.84700     Fe( 1.00)

     Starting magnetic structure 
     atomic species   magnetization
        Fe           0.500

     48 Sym. Ops., with inversion, found



   Cartesian axes

     site n.     atom                  positions (alat units)
         1           Fe  tau(   1) = (   0.0000000   0.0000000   0.0000000  )

     number of k points=    26  Marzari-Vanderbilt smearing, width (Ry)=  0.0100
                       cart. coord. in units 2pi/alat
        k(    1) = (   0.0000000   0.0000000   0.1250000), wk =   0.0117188
        k(    2) = (   0.0000000  -0.1250000   0.2500000), wk =   0.0468750
        k(    3) = (   0.0000000  -0.2500000   0.3750000), wk =   0.0468750
        k(    4) = (   0.0000000  -0.3750000   0.5000000), wk =   0.0468750
        k(    5) = (  -0.1250000   0.1250000   0.1250000), wk =   0.0156250
        k(    6) = (  -0.1250000  -0.1250000   0.3750000), wk =   0.0468750
        k(    7) = (  -0.1250000  -0.2500000   0.5000000), wk =   0.0937500
        k(    8) = (  -0.1250000   0.6250000  -0.3750000), wk =   0.0468750
        k(    9) = (  -0.2500000   0.2500000   0.1250000), wk =   0.0468750
        k(   10) = (  -0.2500000   0.7500000  -0.3750000), wk =   0.0468750
        k(   11) = (  -0.3750000   0.3750000   0.1250000), wk =   0.0468750
        k(   12) = (  -0.3750000   0.2500000   0.2500000), wk =   0.0468750
        k(   13) = (   0.5000000  -0.5000000   0.1250000), wk =   0.0234375
        k(   14) = (   0.5000000  -0.6250000   0.2500000), wk =   0.0937500
        k(   15) = (   0.3750000  -0.6250000   0.3750000), wk =   0.0156250
        k(   16) = (   0.0000000   0.0000000   0.3750000), wk =   0.0117188
        k(   17) = (   0.0000000  -0.1250000   0.5000000), wk =   0.0468750
        k(   18) = (   0.0000000  -0.2500000   0.6250000), wk =   0.0468750
        k(   19) = (  -0.1250000  -0.1250000   0.6250000), wk =   0.0468750
        k(   20) = (  -0.1250000   0.7500000  -0.2500000), wk =   0.0468750
        k(   21) = (   0.6250000  -0.6250000   0.3750000), wk =   0.0156250
        k(   22) = (   0.5000000  -0.5000000   0.3750000), wk =   0.0234375
        k(   23) = (   0.0000000   0.0000000   0.6250000), wk =   0.0117188
        k(   24) = (   0.0000000  -0.1250000   0.7500000), wk =   0.0468750
        k(   25) = (  -0.1250000   0.8750000  -0.1250000), wk =   0.0156250
        k(   26) = (   0.0000000   0.0000000   0.8750000), wk =   0.0117188

     Dense  grid:     1409 G-vectors     FFT dimensions: (  15,  15,  15)

     Estimated max dynamical RAM per process >       1.80 MB

     Estimated total dynamical RAM >      10.79 MB
     Generating pointlists ...
     new r_m :   0.3572 (alat units)  1.9362 (a.u.) for type    1

     Check: negative/imaginary core charge=   -0.000183    0.000000

     Initial potential from superposition of free atoms
     Check: negative starting charge=(component1):   -0.003324
     Check: negative starting charge=(component2):   -0.001108

     starting charge    7.99937, renormalised to    8.00000

     negative rho (up, down):  3.324E-03 1.108E-03
     Starting wfc are    6 randomized atomic wfcs +    2 random wfc

     total cpu time spent up to now is        4.1 secs

     Self-consistent Calculation

     iteration #  1     ecut=    25.00 Ry     beta= 0.70
     Davidson diagonalization with overlap
     ethr =  1.00E-02,  avg # of iterations =  3.9

     negative rho (up, down):  3.002E-03 7.320E-04

     total cpu time spent up to now is        4.3 secs

     total energy              =     -55.69849956 Ry
     Harris-Foulkes estimate   =     -55.86299040 Ry
     estimated scf accuracy    <       0.28430958 Ry

     total magnetization       =     2.68 Bohr mag/cell
     absolute magnetization    =     2.70 Bohr mag/cell

     iteration #  2     ecut=    25.00 Ry     beta= 0.70
     Davidson diagonalization with overlap
     ethr =  3.55E-03,  avg # of iterations =  2.1

     negative rho (up, down):  3.267E-03 9.059E-04

     total cpu time spent up to now is        4.4 secs

     total energy              =     -55.76697322 Ry
     Harris-Foulkes estimate   =     -55.91737199 Ry
     estimated scf accuracy    <       0.33743636 Ry

     total magnetization       =     2.46 Bohr mag/cell
     absolute magnetization    =     2.56 Bohr mag/cell

     iteration #  3     ecut=    25.00 Ry     beta= 0.70
     Davidson diagonalization with overlap
     ethr =  3.55E-03,  avg # of iterations =  1.3

     negative rho (up, down):  3.310E-03 8.486E-04

     total cpu time spent up to now is        4.5 secs

     total energy              =     -55.83310100 Ry
     Harris-Foulkes estimate   =     -55.82941797 Ry
     estimated scf accuracy    <       0.00084224 Ry

     total magnetization       =     2.51 Bohr mag/cell
     absolute magnetization    =     2.61 Bohr mag/cell

     iteration #  4     ecut=    25.00 Ry     beta= 0.70
     Davidson diagonalization with overlap
     ethr =  1.05E-05,  avg # of iterations =  3.7

     negative rho (up, down):  3.325E-03 8.526E-04

     total cpu time spent up to now is        4.7 secs

     total energy              =     -55.83532503 Ry
     Harris-Foulkes estimate   =     -55.83523204 Ry
     estimated scf accuracy    <       0.00045015 Ry

     total magnetization       =     2.40 Bohr mag/cell
     absolute magnetization    =     2.57 Bohr mag/cell

     iteration #  5     ecut=    25.00 Ry     beta= 0.70
     Davidson diagonalization with overlap
     ethr =  5.63E-06,  avg # of iterations =  1.5

     negative rho (up, down):  3.323E-03 8.566E-04

     total cpu time spent up to now is        4.8 secs

     total energy              =     -55.83549555 Ry
     Harris-Foulkes estimate   =     -55.83548763 Ry
     estimated scf accuracy    <       0.00002846 Ry

     total magnetization       =     2.36 Bohr mag/cell
     absolute magnetization    =     2.55 Bohr mag/cell

     iteration #  6     ecut=    25.00 Ry     beta= 0.70
     Davidson diagonalization with overlap
     ethr =  3.56E-07,  avg # of iterations =  1.6

     negative rho (up, down):  3.313E-03 8.688E-04

     total cpu time spent up to now is        4.9 secs

     total energy              =     -55.83551045 Ry
     Harris-Foulkes estimate   =     -55.83549794 Ry
     estimated scf accuracy    <       0.00002496 Ry

     total magnetization       =     2.36 Bohr mag/cell
     absolute magnetization    =     2.54 Bohr mag/cell

     iteration #  7     ecut=    25.00 Ry     beta= 0.70
     Davidson diagonalization with overlap
     ethr =  3.12E-07,  avg # of iterations =  1.1

     negative rho (up, down):  3.288E-03 8.942E-04

     total cpu time spent up to now is        5.0 secs

     total energy              =     -55.83550155 Ry
     Harris-Foulkes estimate   =     -55.83552399 Ry
     estimated scf accuracy    <       0.00001183 Ry

     total magnetization       =     2.34 Bohr mag/cell
     absolute magnetization    =     2.53 Bohr mag/cell

     iteration #  8     ecut=    25.00 Ry     beta= 0.70
     Davidson diagonalization with overlap
     ethr =  1.48E-07,  avg # of iterations =  2.3

     negative rho (up, down):  3.279E-03 9.023E-04

     total cpu time spent up to now is        5.1 secs

     total energy              =     -55.83555200 Ry
     Harris-Foulkes estimate   =     -55.83555830 Ry
     estimated scf accuracy    <       0.00000747 Ry

     total magnetization       =     2.31 Bohr mag/cell
     absolute magnetization    =     2.49 Bohr mag/cell

     iteration #  9     ecut=    25.00 Ry     beta= 0.70
     Davidson diagonalization with overlap
     ethr =  9.34E-08,  avg # of iterations =  1.6

     negative rho (up, down):  3.279E-03 9.039E-04

     total cpu time spent up to now is        5.2 secs

     total energy              =     -55.83556076 Ry
     Harris-Foulkes estimate   =     -55.83556074 Ry
     estimated scf accuracy    <       0.00000006 Ry

     total magnetization       =     2.30 Bohr mag/cell
     absolute magnetization    =     2.48 Bohr mag/cell

     iteration # 10     ecut=    25.00 Ry     beta= 0.70
     Davidson diagonalization with overlap
     ethr =  7.59E-10,  avg # of iterations =  4.0

     negative rho (up, down):  3.278E-03 9.044E-04

     total cpu time spent up to now is        5.3 secs

     total energy              =     -55.83556085 Ry
     Harris-Foulkes estimate   =     -55.83556087 Ry
     estimated scf accuracy    <       0.00000006 Ry

     total magnetization       =     2.30 Bohr mag/cell
     absolute magnetization    =     2.48 Bohr mag/cell

     iteration # 11     ecut=    25.00 Ry     beta= 0.70
     Davidson diagonalization with overlap
     ethr =  7.59E-10,  avg # of iterations =  1.4

     negative rho (up, down):  3.278E-03 9.046E-04

     total cpu time spent up to now is        5.4 secs

     total energy              =     -55.83556087 Ry
     Harris-Foulkes estimate   =     -55.83556088 Ry
     estimated scf accuracy    <          3.0E-09 Ry

     total magnetization       =     2.30 Bohr mag/cell
     absolute magnetization    =     2.48 Bohr mag/cell

     iteration # 12     ecut=    25.00 Ry     beta= 0.70
     Davidson diagonalization with overlap
     ethr =  3.81E-11,  avg # of iterations =  2.3

     negative rho (up, down):  3.278E-03 9.046E-04
 
     Magnetic moment per site:
     atom:    1    charge:    6.4982    magn:    2.3686    constr:    0.0000

     total cpu time spent up to now is        5.5 secs

     End of self-consistent calculation

 ------ SPIN UP ------------


          k = 0.0000 0.0000 0.1250 (   169 PWs)   bands (ev):

     5.2493  10.7290  10.7290  10.8113  11.6712  11.8550  35.8403  37.1404

          k = 0.0000-0.1250 0.2500 (   168 PWs)   bands (ev):

     6.4182  10.4780  10.6549  11.3967  11.4633  11.9487  31.5000  34.8089

          k = 0.0000-0.2500 0.3750 (   169 PWs)   bands (ev):

     7.9907  10.1042  10.7261  11.7012  12.1460  12.3568  25.8033  32.4688

          k = 0.0000-0.3750 0.5000 (   168 PWs)   bands (ev):

     8.3752   9.8504  11.4108  11.8360  13.1279  13.7156  21.0625  31.1348

          k =-0.1250 0.1250 0.1250 (   171 PWs)   bands (ev):

     5.8545  10.5354  10.5354  11.2980  11.7434  11.7434  33.9950  33.9950

          k =-0.1250-0.1250 0.3750 (   167 PWs)   bands (ev):

     7.8278  10.2477  10.4788  11.3758  12.0460  12.3847  28.7586  29.7122

          k =-0.1250-0.2500 0.5000 (   170 PWs)   bands (ev):

     8.7874   9.9744  10.5377  11.6726  12.4218  14.1717  23.6471  27.5242

          k =-0.1250 0.6250-0.3750 (   170 PWs)   bands (ev):

     8.7918   9.9795  10.6755  11.7622  12.7887  16.2476  20.2573  26.8447

          k =-0.2500 0.2500 0.1250 (   167 PWs)   bands (ev):

     7.4120  10.1509  10.3505  11.7040  11.8561  12.2778  28.6779  31.7235

          k =-0.2500 0.7500-0.3750 (   167 PWs)   bands (ev):

     9.4624   9.6761  10.2066  11.9684  12.4066  17.4189  21.7835  23.0258

          k =-0.3750 0.3750 0.1250 (   170 PWs)   bands (ev):

     8.4624   9.8229  11.1683  11.8556  11.9422  13.6930  23.2648  30.0681

          k =-0.3750 0.2500 0.2500 (   170 PWs)   bands (ev):

     8.8250   9.8807  10.1030  11.7828  11.9820  13.8831  26.2295  26.9878

          k = 0.5000-0.5000 0.1250 (   170 PWs)   bands (ev):

     8.4907   9.6970  11.9089  11.9771  12.1354  15.1651  20.1419  29.4610

          k = 0.5000-0.6250 0.2500 (   167 PWs)   bands (ev):

     9.0989   9.7361  10.7326  11.9194  12.0871  16.3680  21.6075  25.4508

          k = 0.3750-0.6250 0.3750 (   161 PWs)   bands (ev):

     9.4020  10.0918  10.0918  12.0480  12.0480  19.8715  19.8715  22.1983

          k = 0.0000 0.0000 0.3750 (   164 PWs)   bands (ev):

     7.4364  10.7229  10.8804  10.8804  11.4086  12.3057  31.6002  32.6240

          k = 0.0000-0.1250 0.5000 (   169 PWs)   bands (ev):

     8.6665  10.0299  10.7496  11.3567  12.2465  13.2192  26.6570  30.0734

          k = 0.0000-0.2500 0.6250 (   171 PWs)   bands (ev):

     8.8749   9.9918  10.5625  11.5417  13.0508  15.7943  21.6018  28.4930

          k =-0.1250-0.1250 0.6250 (   171 PWs)   bands (ev):

     9.1939   9.4401  10.8204  11.7438  12.6414  15.6387  24.5647  25.1452

          k =-0.1250 0.7500-0.2500 (   163 PWs)   bands (ev):

     9.1096   9.4669  10.6424  12.0345  12.8658  18.6701  20.7702  24.1842

          k = 0.6250-0.6250 0.3750 (   165 PWs)   bands (ev):

     9.7266   9.7266   9.9489  11.9645  11.9645  16.3269  24.6218  24.6218

          k = 0.5000-0.5000 0.3750 (   162 PWs)   bands (ev):

     9.6294   9.6984  10.3553  11.9978  12.0001  19.1797  20.9195  24.0699

          k = 0.0000 0.0000 0.6250 (   168 PWs)   bands (ev):

     8.9887   9.3822  11.6198  11.6198  12.2783  14.9973  27.1960  27.1960

          k = 0.0000-0.1250 0.7500 (   168 PWs)   bands (ev):

     8.8471   8.9716  11.7484  12.0147  12.9442  18.1392  22.8340  25.4223

          k =-0.1250 0.8750-0.1250 (   167 PWs)   bands (ev):

     8.7094   8.7094  11.8514  12.7988  12.7988  21.5303  21.5303  22.6014

          k = 0.0000 0.0000 0.8750 (   172 PWs)   bands (ev):

     8.4553   8.4611  12.7614  12.7614  12.9104  20.9368  23.4610  23.4610

 ------ SPIN DOWN ----------


          k = 0.0000 0.0000 0.1250 (   169 PWs)   bands (ev):

     5.2735  12.9209  12.9209  13.0277  14.8301  15.0849  35.7289  36.9851

          k = 0.0000-0.1250 0.2500 (   168 PWs)   bands (ev):

     6.4741  12.6060  12.8000  13.6793  14.4645  15.1918  31.9162  34.8747

          k = 0.0000-0.2500 0.3750 (   169 PWs)   bands (ev):

     8.4254  12.1455  12.5272  14.5015  14.7721  15.3075  26.6037  32.5141

          k = 0.0000-0.3750 0.5000 (   168 PWs)   bands (ev):

     9.7030  11.8366  13.0560  14.7084  15.6412  15.6751  22.3361  31.1259

          k =-0.1250 0.1250 0.1250 (   171 PWs)   bands (ev):

     5.8875  12.6884  12.6884  13.5558  14.9140  14.9140  34.1633  34.1633

          k =-0.1250-0.1250 0.3750 (   167 PWs)   bands (ev):

     8.0529  12.4034  12.4938  14.1654  14.5146  15.4124  29.3959  30.1999

          k =-0.1250-0.2500 0.5000 (   170 PWs)   bands (ev):

     9.8100  11.9632  12.3346  14.3977  15.2363  16.2811  24.5739  28.0852

          k =-0.1250 0.6250-0.3750 (   170 PWs)   bands (ev):

    10.3503  11.9476  12.4183  14.5576  15.4462  17.6184  21.6068  27.3885

          k =-0.2500 0.2500 0.1250 (   167 PWs)   bands (ev):

     7.5547  12.2064  12.3698  14.5804  14.7497  15.0728  29.2636  31.9858

          k =-0.2500 0.7500-0.3750 (   167 PWs)   bands (ev):

    11.0375  11.5803  12.0536  14.6764  15.1513  18.8433  22.8320  23.7910

          k =-0.3750 0.3750 0.1250 (   170 PWs)   bands (ev):

     9.3979  11.7911  12.4431  14.8318  15.2177  15.8299  24.2331  30.2844

          k =-0.3750 0.2500 0.2500 (   170 PWs)   bands (ev):

     9.3491  11.8187  11.9144  14.8261  15.1999  16.0186  26.9371  27.5588

          k = 0.5000-0.5000 0.1250 (   170 PWs)   bands (ev):

     9.9301  11.6321  13.1596  14.9017  15.2811  16.6606  21.5661  29.6410

          k = 0.5000-0.6250 0.2500 (   167 PWs)   bands (ev):

    10.5277  11.5811  12.1204  14.9617  15.2691  17.8900  22.6576  26.0534

          k = 0.3750-0.6250 0.3750 (   161 PWs)   bands (ev):

    11.1059  11.6927  11.6927  15.1429  15.1429  20.9515  20.9515  23.0504

          k = 0.0000 0.0000 0.3750 (   164 PWs)   bands (ev):

     7.5754  13.0114  13.0114  13.5211  13.7052  15.4938  32.0333  33.1540

          k = 0.0000-0.1250 0.5000 (   169 PWs)   bands (ev):

     9.3005  12.3514  12.8464  13.7202  14.6438  15.8699  27.4107  30.6357

          k = 0.0000-0.2500 0.6250 (   171 PWs)   bands (ev):

    10.4529  11.9250  12.6209  14.0685  15.5849  17.3304  22.7068  28.9916

          k =-0.1250-0.1250 0.6250 (   171 PWs)   bands (ev):

    10.5684  11.6448  12.9185  14.0950  15.1588  17.3354  25.4525  25.7682

          k =-0.1250 0.7500-0.2500 (   163 PWs)   bands (ev):

    11.0592  11.4188  12.6511  14.4545  15.3890  19.7905  21.8627  24.8662

          k = 0.6250-0.6250 0.3750 (   165 PWs)   bands (ev):

    10.8843  11.5041  11.5041  15.2022  15.2022  17.9597  25.3373  25.3373

          k = 0.5000-0.5000 0.3750 (   162 PWs)   bands (ev):

    11.1834  11.4138  11.7882  15.2342  15.3140  20.2447  21.9610  24.7806

          k = 0.0000 0.0000 0.6250 (   168 PWs)   bands (ev):

    10.3029  11.7457  13.7926  13.7926  14.6999  16.8030  27.7228  27.7228

          k = 0.0000-0.1250 0.7500 (   168 PWs)   bands (ev):

    10.7732  11.0855  13.9690  14.2684  15.4611  19.1956  23.5695  25.8425

          k =-0.1250 0.8750-0.1250 (   167 PWs)   bands (ev):

    10.7804  10.7804  14.0447  15.2597  15.2597  22.2372  22.2372  23.1216

          k = 0.0000 0.0000 0.8750 (   172 PWs)   bands (ev):

    10.5036  10.5686  15.2007  15.2007  15.4290  21.4441  23.7011  23.7011

     the Fermi energy is    13.0226 ev

!    total energy              =     -55.83556088 Ry
     Harris-Foulkes estimate   =     -55.83556088 Ry
     estimated scf accuracy    <          3.4E-11 Ry

     The total energy is the sum of the following terms:

     one-electron contribution =       6.84664257 Ry
     hartree contribution      =       6.79785614 Ry
     xc contribution           =     -26.50769628 Ry
     ewald contribution        =     -42.97249832 Ry
     smearing contrib. (-TS)   =       0.00013501 Ry

     total magnetization       =     2.30 Bohr mag/cell
     absolute magnetization    =     2.48 Bohr mag/cell

     convergence has been achieved in  12 iterations

     Writing output data file pwscf.save
 
     init_run     :      0.13s CPU      1.10s WALL (       1 calls)
     electrons    :      1.35s CPU      1.40s WALL (       1 calls)

     Called by init_run:
     wfcinit      :      0.03s CPU      0.43s WALL (       1 calls)
     potinit      :      0.00s CPU      0.00s WALL (       1 calls)

     Called by electrons:
     c_bands      :      1.15s CPU      1.20s WALL (      12 calls)
     sum_band     :      0.17s CPU      0.18s WALL (      12 calls)
     v_of_rho     :      0.02s CPU      0.02s WALL (      13 calls)
     newd         :      0.01s CPU      0.01s WALL (      13 calls)
     mix_rho      :      0.00s CPU      0.00s WALL (      12 calls)

     Called by c_bands:
     init_us_2    :      0.00s CPU      0.01s WALL (    1300 calls)
     cegterg      :      1.10s CPU      1.15s WALL (     624 calls)

     Called by sum_band:
     sum_band:bec :      0.00s CPU      0.00s WALL (     624 calls)
     addusdens    :      0.01s CPU      0.01s WALL (      12 calls)

     Called by *egterg:
     h_psi        :      0.73s CPU      0.90s WALL (    2070 calls)
     s_psi        :      0.02s CPU      0.01s WALL (    2070 calls)
     g_psi        :      0.01s CPU      0.00s WALL (    1394 calls)
     cdiaghg      :      0.15s CPU      0.49s WALL (    2018 calls)

     Called by h_psi:
     h_psi:pot    :      0.72s CPU      0.89s WALL (    2070 calls)
     h_psi:calbec :      0.04s CPU      0.18s WALL (    2070 calls)
     vloc_psi     :      0.64s CPU      0.68s WALL (    2070 calls)
     add_vuspsi   :      0.02s CPU      0.01s WALL (    2070 calls)

     General routines
     calbec       :      0.04s CPU      0.18s WALL (    2694 calls)
     fft          :      0.02s CPU      0.58s WALL (     321 calls)
     fftw         :      0.69s CPU      0.72s WALL (   30504 calls)
 
     Parallel routines
     fft_scatt_xy :      0.06s CPU      0.08s WALL (   30825 calls)
     fft_scatt_yz :      0.31s CPU      0.38s WALL (   30825 calls)
 
     PWSCF        :     1.70s CPU         5.56s WALL

 
   This run was terminated on:  19: 2: 2  13Aug2019            

=------------------------------------------------------------------------------=
   JOB DONE.
=------------------------------------------------------------------------------=
