### Running on host: assam

     Program PWSCF v.6.4.1 starts on 13Aug2019 at 18:35:43 

     This program is part of the open-source Quantum ESPRESSO suite
     for quantum simulation of materials; please cite
         "P. Giannozzi et al., J. Phys.:Condens. Matter 21 395502 (2009);
         "P. Giannozzi et al., J. Phys.:Condens. Matter 29 465901 (2017);
          URL http://www.quantum-espresso.org", 
     in publications or presentations arising from this work. More details at
     http://www.quantum-espresso.org/quote

     Parallel version (MPI), running on     2 processors

     MPI processes distributed on     1 nodes
     R & G space division:  proc/nbgrp/npool/nimage =       2
     Reading input from scf.Al.mv-smearing.dg0.11.nk-16.in

     Current dimensions of program PWSCF are:
     Max number of different atomic species (ntypx) = 10
     Max number of k-points (npk) =  40000
     Max angular momentum in pseudopotentials (lmaxx) =  3

     Subspace diagonalization in iterative solution of the eigenvalue problem:
     a serial algorithm will be used


     Parallelization info
     --------------------
     sticks:   dense  smooth     PW     G-vecs:    dense   smooth      PW
     Min          45      45     21                  304      304      90
     Max          46      46     22                  305      305      91
     Sum          91      91     43                  609      609     181



     bravais-lattice index     =            2
     lattice parameter (alat)  =       7.5000  a.u.
     unit-cell volume          =     105.4688 (a.u.)^3
     number of atoms/cell      =            1
     number of atomic types    =            1
     number of electrons       =         3.00
     number of Kohn-Sham states=            6
     kinetic-energy cutoff     =      12.0000  Ry
     charge density cutoff     =      48.0000  Ry
     convergence threshold     =      1.0E-09
     mixing beta               =       0.7000
     number of iterations used =            8  plain     mixing
     Exchange-correlation      =  SLA  PZ   NOGX NOGC ( 1  1  0  0 0 0)

     celldm(1)=   7.500000  celldm(2)=   0.000000  celldm(3)=   0.000000
     celldm(4)=   0.000000  celldm(5)=   0.000000  celldm(6)=   0.000000

     crystal axes: (cart. coord. in units of alat)
               a(1) = (  -0.500000   0.000000   0.500000 )  
               a(2) = (   0.000000   0.500000   0.500000 )  
               a(3) = (  -0.500000   0.500000   0.000000 )  

     reciprocal axes: (cart. coord. in units 2 pi/alat)
               b(1) = ( -1.000000 -1.000000  1.000000 )  
               b(2) = (  1.000000  1.000000  1.000000 )  
               b(3) = ( -1.000000  1.000000 -1.000000 )  


     PseudoPot. # 1 for Al read from file:
     /home/matic/pw/pseudo/Al.pz-vbc.UPF
     MD5 check sum: 614279c88ff8d45c90147292d03ed420
     Pseudo is Norm-conserving, Zval =  3.0
     Generated by new atomic code, or converted to UPF format
     Using radial grid of  171 points,  2 beta functions with: 
                l(1) =   0
                l(2) =   1

     atomic species   valence    mass     pseudopotential
        Al             3.00    26.98100     Al( 1.00)

     48 Sym. Ops., with inversion, found



   Cartesian axes

     site n.     atom                  positions (alat units)
         1           Al  tau(   1) = (   0.0000000   0.0000000   0.0000000  )

     number of k points=   408  Marzari-Vanderbilt smearing, width (Ry)=  0.1100

     Number of k-points >= 100: set verbosity='high' to print them.

     Dense  grid:      609 G-vectors     FFT dimensions: (  12,  12,  12)

     Estimated max dynamical RAM per process >       1.68 MB

     Estimated total dynamical RAM >       3.37 MB

     Initial potential from superposition of free atoms

     starting charge    2.99794, renormalised to    3.00000
     Starting wfcs are    4 randomized atomic wfcs +    2 random wfcs

     total cpu time spent up to now is        0.2 secs

     Self-consistent Calculation

     iteration #  1     ecut=    12.00 Ry     beta= 0.70
     Davidson diagonalization with overlap
     ethr =  1.00E-02,  avg # of iterations =  4.2

     Threshold (ethr) on eigenvalues was too large:
     Diagonalizing with lowered threshold

     Davidson diagonalization with overlap
     ethr =  2.04E-04,  avg # of iterations =  1.2

     total cpu time spent up to now is        1.4 secs

     total energy              =      -4.18395366 Ry
     Harris-Foulkes estimate   =      -4.18477947 Ry
     estimated scf accuracy    <       0.00610693 Ry

     iteration #  2     ecut=    12.00 Ry     beta= 0.70
     Davidson diagonalization with overlap
     ethr =  2.04E-04,  avg # of iterations =  1.0

     total cpu time spent up to now is        1.8 secs

     total energy              =      -4.18394573 Ry
     Harris-Foulkes estimate   =      -4.18397859 Ry
     estimated scf accuracy    <       0.00047649 Ry

     iteration #  3     ecut=    12.00 Ry     beta= 0.70
     Davidson diagonalization with overlap
     ethr =  1.59E-05,  avg # of iterations =  1.3

     total cpu time spent up to now is        2.2 secs

     total energy              =      -4.18394849 Ry
     Harris-Foulkes estimate   =      -4.18394843 Ry
     estimated scf accuracy    <       0.00000031 Ry

     iteration #  4     ecut=    12.00 Ry     beta= 0.70
     Davidson diagonalization with overlap
     ethr =  1.04E-08,  avg # of iterations =  1.5

     total cpu time spent up to now is        2.6 secs

     total energy              =      -4.18394851 Ry
     Harris-Foulkes estimate   =      -4.18394851 Ry
     estimated scf accuracy    <          3.0E-09 Ry

     iteration #  5     ecut=    12.00 Ry     beta= 0.70
     Davidson diagonalization with overlap
     ethr =  1.02E-10,  avg # of iterations =  1.6

     total cpu time spent up to now is        3.0 secs

     End of self-consistent calculation

     Number of k-points >= 100: set verbosity='high' to print the bands.

     the Fermi energy is     8.3050 ev

!    total energy              =      -4.18394851 Ry
     Harris-Foulkes estimate   =      -4.18394851 Ry
     estimated scf accuracy    <          1.1E-11 Ry

     The total energy is the sum of the following terms:

     one-electron contribution =       2.94390023 Ry
     hartree contribution      =       0.01000430 Ry
     xc contribution           =      -1.63462321 Ry
     ewald contribution        =      -5.50183452 Ry
     smearing contrib. (-TS)   =      -0.00139531 Ry

     convergence has been achieved in   5 iterations

     Writing output data file pwscf.save/

     init_run     :      0.13s CPU      0.15s WALL (       1 calls)
     electrons    :      2.52s CPU      2.86s WALL (       1 calls)

     Called by init_run:
     wfcinit      :      0.12s CPU      0.14s WALL (       1 calls)
     potinit      :      0.00s CPU      0.00s WALL (       1 calls)
     hinit0       :      0.00s CPU      0.00s WALL (       1 calls)

     Called by electrons:
     c_bands      :      2.21s CPU      2.46s WALL (       6 calls)
     sum_band     :      0.30s CPU      0.39s WALL (       6 calls)
     v_of_rho     :      0.00s CPU      0.00s WALL (       6 calls)
     mix_rho      :      0.00s CPU      0.00s WALL (       6 calls)

     Called by c_bands:
     init_us_2    :      0.06s CPU      0.07s WALL (    5304 calls)
     cegterg      :      2.15s CPU      2.39s WALL (    2448 calls)

     Called by sum_band:

     Called by *egterg:
     h_psi        :      1.51s CPU      1.69s WALL (    7225 calls)
     g_psi        :      0.01s CPU      0.01s WALL (    4369 calls)
     cdiaghg      :      0.49s CPU      0.54s WALL (    6409 calls)

     Called by h_psi:
     h_psi:pot    :      1.50s CPU      1.67s WALL (    7225 calls)
     h_psi:calbec :      0.04s CPU      0.05s WALL (    7225 calls)
     vloc_psi     :      1.41s CPU      1.58s WALL (    7225 calls)
     add_vuspsi   :      0.02s CPU      0.03s WALL (    7225 calls)

     General routines
     calbec       :      0.03s CPU      0.04s WALL (    7225 calls)
     fft          :      0.00s CPU      0.00s WALL (      18 calls)
     ffts         :      0.00s CPU      0.00s WALL (       6 calls)
     fftw         :      1.50s CPU      1.73s WALL (   89780 calls)

     Parallel routines
     fft_scatt_xy :      0.22s CPU      0.25s WALL (   89804 calls)
     fft_scatt_yz :      0.34s CPU      0.40s WALL (   89804 calls)

     PWSCF        :      2.72s CPU      3.09s WALL


   This run was terminated on:  18:35:46  13Aug2019            

=------------------------------------------------------------------------------=
   JOB DONE.
=------------------------------------------------------------------------------=
