### Running on host: assam

     Program PWSCF v.6.4.1 starts on 13Aug2019 at 18:34:46 

     This program is part of the open-source Quantum ESPRESSO suite
     for quantum simulation of materials; please cite
         "P. Giannozzi et al., J. Phys.:Condens. Matter 21 395502 (2009);
         "P. Giannozzi et al., J. Phys.:Condens. Matter 29 465901 (2017);
          URL http://www.quantum-espresso.org", 
     in publications or presentations arising from this work. More details at
     http://www.quantum-espresso.org/quote

     Parallel version (MPI), running on     2 processors

     MPI processes distributed on     1 nodes
     R & G space division:  proc/nbgrp/npool/nimage =       2
     Reading input from scf.Al.mv-smearing.dg0.12.nk-6.in

     Current dimensions of program PWSCF are:
     Max number of different atomic species (ntypx) = 10
     Max number of k-points (npk) =  40000
     Max angular momentum in pseudopotentials (lmaxx) =  3

     Subspace diagonalization in iterative solution of the eigenvalue problem:
     a serial algorithm will be used


     Parallelization info
     --------------------
     sticks:   dense  smooth     PW     G-vecs:    dense   smooth      PW
     Min          45      45     18                  304      304      83
     Max          46      46     19                  305      305      86
     Sum          91      91     37                  609      609     169



     bravais-lattice index     =            2
     lattice parameter (alat)  =       7.5000  a.u.
     unit-cell volume          =     105.4688 (a.u.)^3
     number of atoms/cell      =            1
     number of atomic types    =            1
     number of electrons       =         3.00
     number of Kohn-Sham states=            6
     kinetic-energy cutoff     =      12.0000  Ry
     charge density cutoff     =      48.0000  Ry
     convergence threshold     =      1.0E-09
     mixing beta               =       0.7000
     number of iterations used =            8  plain     mixing
     Exchange-correlation      =  SLA  PZ   NOGX NOGC ( 1  1  0  0 0 0)

     celldm(1)=   7.500000  celldm(2)=   0.000000  celldm(3)=   0.000000
     celldm(4)=   0.000000  celldm(5)=   0.000000  celldm(6)=   0.000000

     crystal axes: (cart. coord. in units of alat)
               a(1) = (  -0.500000   0.000000   0.500000 )  
               a(2) = (   0.000000   0.500000   0.500000 )  
               a(3) = (  -0.500000   0.500000   0.000000 )  

     reciprocal axes: (cart. coord. in units 2 pi/alat)
               b(1) = ( -1.000000 -1.000000  1.000000 )  
               b(2) = (  1.000000  1.000000  1.000000 )  
               b(3) = ( -1.000000  1.000000 -1.000000 )  


     PseudoPot. # 1 for Al read from file:
     /home/matic/pw/pseudo/Al.pz-vbc.UPF
     MD5 check sum: 614279c88ff8d45c90147292d03ed420
     Pseudo is Norm-conserving, Zval =  3.0
     Generated by new atomic code, or converted to UPF format
     Using radial grid of  171 points,  2 beta functions with: 
                l(1) =   0
                l(2) =   1

     atomic species   valence    mass     pseudopotential
        Al             3.00    26.98100     Al( 1.00)

     48 Sym. Ops., with inversion, found



   Cartesian axes

     site n.     atom                  positions (alat units)
         1           Al  tau(   1) = (   0.0000000   0.0000000   0.0000000  )

     number of k points=    28  Marzari-Vanderbilt smearing, width (Ry)=  0.1200
                       cart. coord. in units 2pi/alat
        k(    1) = (  -0.0833333   0.0833333   0.0833333), wk =   0.0185185
        k(    2) = (  -0.2500000   0.2500000  -0.0833333), wk =   0.0555556
        k(    3) = (  -0.4166667   0.4166667  -0.2500000), wk =   0.0555556
        k(    4) = (   0.4166667  -0.4166667   0.5833333), wk =   0.0555556
        k(    5) = (   0.2500000  -0.2500000   0.4166667), wk =   0.0555556
        k(    6) = (   0.0833333  -0.0833333   0.2500000), wk =   0.0555556
        k(    7) = (  -0.0833333   0.4166667   0.0833333), wk =   0.0555556
        k(    8) = (  -0.2500000   0.5833333  -0.0833333), wk =   0.1111111
        k(    9) = (   0.5833333  -0.2500000   0.7500000), wk =   0.1111111
        k(   10) = (   0.4166667  -0.0833333   0.5833333), wk =   0.1111111
        k(   11) = (   0.2500000   0.0833333   0.4166667), wk =   0.1111111
        k(   12) = (  -0.0833333   0.7500000   0.0833333), wk =   0.0555556
        k(   13) = (   0.7500000  -0.0833333   0.9166667), wk =   0.1111111
        k(   14) = (   0.5833333   0.0833333   0.7500000), wk =   0.1111111
        k(   15) = (   0.4166667   0.2500000   0.5833333), wk =   0.1111111
        k(   16) = (  -0.0833333  -0.9166667   0.0833333), wk =   0.0555556
        k(   17) = (  -0.2500000  -0.7500000  -0.0833333), wk =   0.1111111
        k(   18) = (  -0.0833333  -0.5833333   0.0833333), wk =   0.0555556
        k(   19) = (  -0.2500000   0.2500000   0.2500000), wk =   0.0185185
        k(   20) = (  -0.4166667   0.4166667   0.0833333), wk =   0.0555556
        k(   21) = (   0.4166667  -0.4166667   0.9166667), wk =   0.0555556
        k(   22) = (   0.2500000  -0.2500000   0.7500000), wk =   0.0555556
        k(   23) = (  -0.2500000   0.5833333   0.2500000), wk =   0.0555556
        k(   24) = (   0.5833333  -0.2500000   1.0833333), wk =   0.1111111
        k(   25) = (   0.4166667  -0.0833333   0.9166667), wk =   0.1111111
        k(   26) = (  -0.2500000  -1.0833333   0.2500000), wk =   0.0555556
        k(   27) = (  -0.4166667   0.4166667   0.4166667), wk =   0.0185185
        k(   28) = (   0.4166667  -0.4166667   1.2500000), wk =   0.0555556

     Dense  grid:      609 G-vectors     FFT dimensions: (  12,  12,  12)

     Estimated max dynamical RAM per process >       0.40 MB

     Estimated total dynamical RAM >       0.79 MB

     Initial potential from superposition of free atoms

     starting charge    2.99794, renormalised to    3.00000
     Starting wfcs are    4 randomized atomic wfcs +    2 random wfcs

     total cpu time spent up to now is        0.0 secs

     Self-consistent Calculation

     iteration #  1     ecut=    12.00 Ry     beta= 0.70
     Davidson diagonalization with overlap
     ethr =  1.00E-02,  avg # of iterations =  4.0

     Threshold (ethr) on eigenvalues was too large:
     Diagonalizing with lowered threshold

     Davidson diagonalization with overlap
     ethr =  2.03E-04,  avg # of iterations =  1.2

     total cpu time spent up to now is        0.1 secs

     total energy              =      -4.18398707 Ry
     Harris-Foulkes estimate   =      -4.18481052 Ry
     estimated scf accuracy    <       0.00609787 Ry

     iteration #  2     ecut=    12.00 Ry     beta= 0.70
     Davidson diagonalization with overlap
     ethr =  2.03E-04,  avg # of iterations =  1.0

     total cpu time spent up to now is        0.1 secs

     total energy              =      -4.18397889 Ry
     Harris-Foulkes estimate   =      -4.18401161 Ry
     estimated scf accuracy    <       0.00047589 Ry

     iteration #  3     ecut=    12.00 Ry     beta= 0.70
     Davidson diagonalization with overlap
     ethr =  1.59E-05,  avg # of iterations =  1.4

     total cpu time spent up to now is        0.2 secs

     total energy              =      -4.18398163 Ry
     Harris-Foulkes estimate   =      -4.18398157 Ry
     estimated scf accuracy    <       0.00000031 Ry

     iteration #  4     ecut=    12.00 Ry     beta= 0.70
     Davidson diagonalization with overlap
     ethr =  1.03E-08,  avg # of iterations =  1.9

     total cpu time spent up to now is        0.2 secs

     total energy              =      -4.18398165 Ry
     Harris-Foulkes estimate   =      -4.18398165 Ry
     estimated scf accuracy    <          3.0E-09 Ry

     iteration #  5     ecut=    12.00 Ry     beta= 0.70
     Davidson diagonalization with overlap
     ethr =  1.00E-10,  avg # of iterations =  1.4

     total cpu time spent up to now is        0.2 secs

     End of self-consistent calculation

          k =-0.0833 0.0833 0.0833 (    65 PWs)   bands (ev):

    -2.9625  18.4944  20.6069  20.6069  23.3327  23.5031

          k =-0.2500 0.2500-0.0833 (    67 PWs)   bands (ev):

    -1.9142  14.0415  17.0596  21.5245  22.8701  24.0761

          k =-0.4167 0.4167-0.2500 (    74 PWs)   bands (ev):

     0.6538   8.0368  16.5831  19.8831  21.2487  21.6877

          k = 0.4167-0.4167 0.5833 (    74 PWs)   bands (ev):

     3.1579   4.6646  17.4837  18.1350  19.8511  22.1327

          k = 0.2500-0.2500 0.4167 (    71 PWs)   bands (ev):

    -0.3647   9.9348  17.6825  19.2936  19.7618  24.3080

          k = 0.0833-0.0833 0.2500 (    66 PWs)   bands (ev):

    -2.4369  16.2856  18.5199  19.8446  22.4256  23.5001

          k =-0.0833 0.4167 0.0833 (    72 PWs)   bands (ev):

    -1.3993  14.4332  16.7959  18.1071  18.9834  21.2872

          k =-0.2500 0.5833-0.0833 (    75 PWs)   bands (ev):

     0.6519  10.7547  13.9220  15.3922  19.4755  22.7235

          k = 0.5833-0.2500 0.7500 (    74 PWs)   bands (ev):

     4.1329   5.6356  12.9456  14.4542  20.1886  24.1019

          k = 0.4167-0.0833 0.5833 (    74 PWs)   bands (ev):

     1.6642   8.8755  12.1759  16.2314  21.9924  23.1178

          k = 0.2500 0.0833 0.4167 (    72 PWs)   bands (ev):

    -0.8811  12.1723  15.3270  19.3598  20.7457  23.7160

          k =-0.0833 0.7500 0.0833 (    77 PWs)   bands (ev):

     2.1594  11.0366  12.1258  14.6527  15.7809  19.3134

          k = 0.7500-0.0833 0.9167 (    76 PWs)   bands (ev):

     5.0466   8.2359   9.4086  12.6739  18.1076  21.5840

          k = 0.5833 0.0833 0.7500 (    75 PWs)   bands (ev):

     5.1040   6.5118   9.7988  13.9613  19.7701  26.1777

          k = 0.4167 0.2500 0.5833 (    75 PWs)   bands (ev):

     2.1655   6.5935  15.2379  16.6805  20.9320  22.3996

          k =-0.0833-0.9167 0.0833 (    74 PWs)   bands (ev):

     4.5692   7.8007  11.6332  14.2294  15.2954  18.9113

          k =-0.2500-0.7500-0.0833 (    77 PWs)   bands (ev):

     2.6570   9.7880  11.5283  13.1800  18.5688  21.9668

          k =-0.0833-0.5833 0.0833 (    76 PWs)   bands (ev):

     0.1407  13.0171  14.8194  15.5072  16.7547  20.1329

          k =-0.2500 0.2500 0.2500 (    68 PWs)   bands (ev):

    -1.3945  11.8141  19.4225  19.4225  23.0017  23.3873

          k =-0.4167 0.4167 0.0833 (    73 PWs)   bands (ev):

     0.1444  10.2970  13.5725  19.4440  21.5255  23.4649

          k = 0.4167-0.4167 0.9167 (    75 PWs)   bands (ev):

     3.1594   7.4524  10.7725  16.8225  18.7942  26.1994

          k = 0.2500-0.2500 0.7500 (    74 PWs)   bands (ev):

     3.1573   7.5383  12.0571  15.5172  17.2646  24.7352

          k =-0.2500 0.5833 0.2500 (    75 PWs)   bands (ev):

     1.1594   8.5012  15.7352  16.3796  18.1776  25.3729

          k = 0.5833-0.2500 1.0833 (    76 PWs)   bands (ev):

     3.6484   7.9211  11.1433  12.6893  22.2004  23.6910

          k = 0.4167-0.0833 0.9167 (    75 PWs)   bands (ev):

     5.9928   7.4310   9.2244  10.9579  21.7936  24.6759

          k =-0.2500-1.0833 0.2500 (    74 PWs)   bands (ev):

     5.5168   7.0349   8.8683  15.0900  16.7820  24.3818

          k =-0.4167 0.4167 0.4167 (    73 PWs)   bands (ev):

     1.6663   6.1215  19.4559  19.4559  20.7883  20.7884

          k = 0.4167-0.4167 1.2500 (    79 PWs)   bands (ev):

     3.6457   5.1425  13.9160  17.2563  19.1887  23.9267

     the Fermi energy is     8.3107 ev

!    total energy              =      -4.18398165 Ry
     Harris-Foulkes estimate   =      -4.18398165 Ry
     estimated scf accuracy    <          1.2E-11 Ry

     The total energy is the sum of the following terms:

     one-electron contribution =       2.94488366 Ry
     hartree contribution      =       0.01000776 Ry
     xc contribution           =      -1.63463204 Ry
     ewald contribution        =      -5.50183452 Ry
     smearing contrib. (-TS)   =      -0.00240651 Ry

     convergence has been achieved in   5 iterations

     Writing output data file pwscf.save/

     init_run     :      0.01s CPU      0.01s WALL (       1 calls)
     electrons    :      0.15s CPU      0.19s WALL (       1 calls)

     Called by init_run:
     wfcinit      :      0.00s CPU      0.01s WALL (       1 calls)
     potinit      :      0.00s CPU      0.00s WALL (       1 calls)
     hinit0       :      0.00s CPU      0.00s WALL (       1 calls)

     Called by electrons:
     c_bands      :      0.12s CPU      0.16s WALL (       6 calls)
     sum_band     :      0.02s CPU      0.03s WALL (       6 calls)
     v_of_rho     :      0.00s CPU      0.00s WALL (       6 calls)
     mix_rho      :      0.00s CPU      0.00s WALL (       6 calls)

     Called by c_bands:
     init_us_2    :      0.00s CPU      0.00s WALL (     364 calls)
     cegterg      :      0.12s CPU      0.16s WALL (     168 calls)

     Called by sum_band:

     Called by *egterg:
     h_psi        :      0.08s CPU      0.11s WALL (     502 calls)
     g_psi        :      0.00s CPU      0.00s WALL (     306 calls)
     cdiaghg      :      0.03s CPU      0.04s WALL (     446 calls)

     Called by h_psi:
     h_psi:pot    :      0.08s CPU      0.11s WALL (     502 calls)
     h_psi:calbec :      0.00s CPU      0.00s WALL (     502 calls)
     vloc_psi     :      0.07s CPU      0.10s WALL (     502 calls)
     add_vuspsi   :      0.00s CPU      0.00s WALL (     502 calls)

     General routines
     calbec       :      0.00s CPU      0.00s WALL (     502 calls)
     fft          :      0.00s CPU      0.00s WALL (      18 calls)
     ffts         :      0.00s CPU      0.00s WALL (       6 calls)
     fftw         :      0.08s CPU      0.11s WALL (    6176 calls)

     Parallel routines
     fft_scatt_xy :      0.01s CPU      0.02s WALL (    6200 calls)
     fft_scatt_yz :      0.02s CPU      0.03s WALL (    6200 calls)

     PWSCF        :      0.17s CPU      0.22s WALL


   This run was terminated on:  18:34:46  13Aug2019            

=------------------------------------------------------------------------------=
   JOB DONE.
=------------------------------------------------------------------------------=
