### Running on host: assam

     Program PWSCF v.6.4.1 starts on 13Aug2019 at 18:34:11 

     This program is part of the open-source Quantum ESPRESSO suite
     for quantum simulation of materials; please cite
         "P. Giannozzi et al., J. Phys.:Condens. Matter 21 395502 (2009);
         "P. Giannozzi et al., J. Phys.:Condens. Matter 29 465901 (2017);
          URL http://www.quantum-espresso.org", 
     in publications or presentations arising from this work. More details at
     http://www.quantum-espresso.org/quote

     Parallel version (MPI), running on     2 processors

     MPI processes distributed on     1 nodes
     R & G space division:  proc/nbgrp/npool/nimage =       2
     Reading input from scf.Al.mv-smearing.dg0.10.in

     Current dimensions of program PWSCF are:
     Max number of different atomic species (ntypx) = 10
     Max number of k-points (npk) =  40000
     Max angular momentum in pseudopotentials (lmaxx) =  3

     Subspace diagonalization in iterative solution of the eigenvalue problem:
     a serial algorithm will be used


     Parallelization info
     --------------------
     sticks:   dense  smooth     PW     G-vecs:    dense   smooth      PW
     Min          45      45     18                  304      304      83
     Max          46      46     19                  305      305      86
     Sum          91      91     37                  609      609     169



     bravais-lattice index     =            2
     lattice parameter (alat)  =       7.5000  a.u.
     unit-cell volume          =     105.4688 (a.u.)^3
     number of atoms/cell      =            1
     number of atomic types    =            1
     number of electrons       =         3.00
     number of Kohn-Sham states=            6
     kinetic-energy cutoff     =      12.0000  Ry
     charge density cutoff     =      48.0000  Ry
     convergence threshold     =      1.0E-09
     mixing beta               =       0.7000
     number of iterations used =            8  plain     mixing
     Exchange-correlation      =  SLA  PZ   NOGX NOGC ( 1  1  0  0 0 0)

     celldm(1)=   7.500000  celldm(2)=   0.000000  celldm(3)=   0.000000
     celldm(4)=   0.000000  celldm(5)=   0.000000  celldm(6)=   0.000000

     crystal axes: (cart. coord. in units of alat)
               a(1) = (  -0.500000   0.000000   0.500000 )  
               a(2) = (   0.000000   0.500000   0.500000 )  
               a(3) = (  -0.500000   0.500000   0.000000 )  

     reciprocal axes: (cart. coord. in units 2 pi/alat)
               b(1) = ( -1.000000 -1.000000  1.000000 )  
               b(2) = (  1.000000  1.000000  1.000000 )  
               b(3) = ( -1.000000  1.000000 -1.000000 )  


     PseudoPot. # 1 for Al read from file:
     /home/matic/pw/pseudo/Al.pz-vbc.UPF
     MD5 check sum: 614279c88ff8d45c90147292d03ed420
     Pseudo is Norm-conserving, Zval =  3.0
     Generated by new atomic code, or converted to UPF format
     Using radial grid of  171 points,  2 beta functions with: 
                l(1) =   0
                l(2) =   1

     atomic species   valence    mass     pseudopotential
        Al             3.00    26.98100     Al( 1.00)

     48 Sym. Ops., with inversion, found



   Cartesian axes

     site n.     atom                  positions (alat units)
         1           Al  tau(   1) = (   0.0000000   0.0000000   0.0000000  )

     number of k points=    28  Marzari-Vanderbilt smearing, width (Ry)=  0.1000
                       cart. coord. in units 2pi/alat
        k(    1) = (  -0.0833333   0.0833333   0.0833333), wk =   0.0185185
        k(    2) = (  -0.2500000   0.2500000  -0.0833333), wk =   0.0555556
        k(    3) = (  -0.4166667   0.4166667  -0.2500000), wk =   0.0555556
        k(    4) = (   0.4166667  -0.4166667   0.5833333), wk =   0.0555556
        k(    5) = (   0.2500000  -0.2500000   0.4166667), wk =   0.0555556
        k(    6) = (   0.0833333  -0.0833333   0.2500000), wk =   0.0555556
        k(    7) = (  -0.0833333   0.4166667   0.0833333), wk =   0.0555556
        k(    8) = (  -0.2500000   0.5833333  -0.0833333), wk =   0.1111111
        k(    9) = (   0.5833333  -0.2500000   0.7500000), wk =   0.1111111
        k(   10) = (   0.4166667  -0.0833333   0.5833333), wk =   0.1111111
        k(   11) = (   0.2500000   0.0833333   0.4166667), wk =   0.1111111
        k(   12) = (  -0.0833333   0.7500000   0.0833333), wk =   0.0555556
        k(   13) = (   0.7500000  -0.0833333   0.9166667), wk =   0.1111111
        k(   14) = (   0.5833333   0.0833333   0.7500000), wk =   0.1111111
        k(   15) = (   0.4166667   0.2500000   0.5833333), wk =   0.1111111
        k(   16) = (  -0.0833333  -0.9166667   0.0833333), wk =   0.0555556
        k(   17) = (  -0.2500000  -0.7500000  -0.0833333), wk =   0.1111111
        k(   18) = (  -0.0833333  -0.5833333   0.0833333), wk =   0.0555556
        k(   19) = (  -0.2500000   0.2500000   0.2500000), wk =   0.0185185
        k(   20) = (  -0.4166667   0.4166667   0.0833333), wk =   0.0555556
        k(   21) = (   0.4166667  -0.4166667   0.9166667), wk =   0.0555556
        k(   22) = (   0.2500000  -0.2500000   0.7500000), wk =   0.0555556
        k(   23) = (  -0.2500000   0.5833333   0.2500000), wk =   0.0555556
        k(   24) = (   0.5833333  -0.2500000   1.0833333), wk =   0.1111111
        k(   25) = (   0.4166667  -0.0833333   0.9166667), wk =   0.1111111
        k(   26) = (  -0.2500000  -1.0833333   0.2500000), wk =   0.0555556
        k(   27) = (  -0.4166667   0.4166667   0.4166667), wk =   0.0185185
        k(   28) = (   0.4166667  -0.4166667   1.2500000), wk =   0.0555556

     Dense  grid:      609 G-vectors     FFT dimensions: (  12,  12,  12)

     Estimated max dynamical RAM per process >       0.40 MB

     Estimated total dynamical RAM >       0.79 MB

     Initial potential from superposition of free atoms

     starting charge    2.99794, renormalised to    3.00000
     Starting wfcs are    4 randomized atomic wfcs +    2 random wfcs

     total cpu time spent up to now is        0.0 secs

     Self-consistent Calculation

     iteration #  1     ecut=    12.00 Ry     beta= 0.70
     Davidson diagonalization with overlap
     ethr =  1.00E-02,  avg # of iterations =  4.0

     Threshold (ethr) on eigenvalues was too large:
     Diagonalizing with lowered threshold

     Davidson diagonalization with overlap
     ethr =  2.04E-04,  avg # of iterations =  1.2

     total cpu time spent up to now is        0.1 secs

     total energy              =      -4.18357958 Ry
     Harris-Foulkes estimate   =      -4.18440396 Ry
     estimated scf accuracy    <       0.00611995 Ry

     iteration #  2     ecut=    12.00 Ry     beta= 0.70
     Davidson diagonalization with overlap
     ethr =  2.04E-04,  avg # of iterations =  1.0

     total cpu time spent up to now is        0.1 secs

     total energy              =      -4.18357127 Ry
     Harris-Foulkes estimate   =      -4.18360407 Ry
     estimated scf accuracy    <       0.00047795 Ry

     iteration #  3     ecut=    12.00 Ry     beta= 0.70
     Davidson diagonalization with overlap
     ethr =  1.59E-05,  avg # of iterations =  1.4

     total cpu time spent up to now is        0.2 secs

     total energy              =      -4.18357400 Ry
     Harris-Foulkes estimate   =      -4.18357394 Ry
     estimated scf accuracy    <       0.00000031 Ry

     iteration #  4     ecut=    12.00 Ry     beta= 0.70
     Davidson diagonalization with overlap
     ethr =  1.03E-08,  avg # of iterations =  1.8

     total cpu time spent up to now is        0.2 secs

     total energy              =      -4.18357402 Ry
     Harris-Foulkes estimate   =      -4.18357402 Ry
     estimated scf accuracy    <          3.0E-09 Ry

     iteration #  5     ecut=    12.00 Ry     beta= 0.70
     Davidson diagonalization with overlap
     ethr =  1.00E-10,  avg # of iterations =  1.5

     total cpu time spent up to now is        0.2 secs

     End of self-consistent calculation

          k =-0.0833 0.0833 0.0833 (    65 PWs)   bands (ev):

    -2.9624  18.4946  20.6070  20.6070  23.3328  23.5033

          k =-0.2500 0.2500-0.0833 (    67 PWs)   bands (ev):

    -1.9141  14.0416  17.0597  21.5246  22.8702  24.0762

          k =-0.4167 0.4167-0.2500 (    74 PWs)   bands (ev):

     0.6539   8.0369  16.5832  19.8832  21.2488  21.6878

          k = 0.4167-0.4167 0.5833 (    74 PWs)   bands (ev):

     3.1580   4.6647  17.4838  18.1351  19.8512  22.1328

          k = 0.2500-0.2500 0.4167 (    71 PWs)   bands (ev):

    -0.3646   9.9349  17.6826  19.2937  19.7619  24.3081

          k = 0.0833-0.0833 0.2500 (    66 PWs)   bands (ev):

    -2.4368  16.2857  18.5200  19.8447  22.4257  23.5002

          k =-0.0833 0.4167 0.0833 (    72 PWs)   bands (ev):

    -1.3992  14.4333  16.7960  18.1073  18.9835  21.2872

          k =-0.2500 0.5833-0.0833 (    75 PWs)   bands (ev):

     0.6520  10.7548  13.9221  15.3923  19.4756  22.7236

          k = 0.5833-0.2500 0.7500 (    74 PWs)   bands (ev):

     4.1330   5.6357  12.9457  14.4543  20.1887  24.1020

          k = 0.4167-0.0833 0.5833 (    74 PWs)   bands (ev):

     1.6643   8.8756  12.1760  16.2315  21.9925  23.1179

          k = 0.2500 0.0833 0.4167 (    72 PWs)   bands (ev):

    -0.8809  12.1724  15.3271  19.3599  20.7459  23.7161

          k =-0.0833 0.7500 0.0833 (    77 PWs)   bands (ev):

     2.1596  11.0367  12.1260  14.6528  15.7811  19.3135

          k = 0.7500-0.0833 0.9167 (    76 PWs)   bands (ev):

     5.0467   8.2359   9.4088  12.6740  18.1077  21.5841

          k = 0.5833 0.0833 0.7500 (    75 PWs)   bands (ev):

     5.1041   6.5119   9.7989  13.9614  19.7702  26.1778

          k = 0.4167 0.2500 0.5833 (    75 PWs)   bands (ev):

     2.1656   6.5936  15.2380  16.6806  20.9321  22.3997

          k =-0.0833-0.9167 0.0833 (    74 PWs)   bands (ev):

     4.5694   7.8007  11.6333  14.2295  15.2955  18.9113

          k =-0.2500-0.7500-0.0833 (    77 PWs)   bands (ev):

     2.6571   9.7881  11.5284  13.1801  18.5689  21.9669

          k =-0.0833-0.5833 0.0833 (    76 PWs)   bands (ev):

     0.1408  13.0172  14.8194  15.5073  16.7548  20.1330

          k =-0.2500 0.2500 0.2500 (    68 PWs)   bands (ev):

    -1.3944  11.8142  19.4226  19.4226  23.0019  23.3874

          k =-0.4167 0.4167 0.0833 (    73 PWs)   bands (ev):

     0.1445  10.2971  13.5726  19.4441  21.5256  23.4650

          k = 0.4167-0.4167 0.9167 (    75 PWs)   bands (ev):

     3.1595   7.4525  10.7726  16.8226  18.7943  26.1995

          k = 0.2500-0.2500 0.7500 (    74 PWs)   bands (ev):

     3.1574   7.5385  12.0572  15.5173  17.2647  24.7352

          k =-0.2500 0.5833 0.2500 (    75 PWs)   bands (ev):

     1.1595   8.5013  15.7353  16.3797  18.1777  25.3730

          k = 0.5833-0.2500 1.0833 (    76 PWs)   bands (ev):

     3.6485   7.9212  11.1433  12.6894  22.2006  23.6911

          k = 0.4167-0.0833 0.9167 (    75 PWs)   bands (ev):

     5.9929   7.4311   9.2245  10.9581  21.7937  24.6760

          k =-0.2500-1.0833 0.2500 (    74 PWs)   bands (ev):

     5.5169   7.0350   8.8684  15.0902  16.7821  24.3819

          k =-0.4167 0.4167 0.4167 (    73 PWs)   bands (ev):

     1.6664   6.1216  19.4560  19.4560  20.7884  20.7885

          k = 0.4167-0.4167 1.2500 (    79 PWs)   bands (ev):

     3.6458   5.1426  13.9161  17.2564  19.1888  23.9268

     the Fermi energy is     8.3160 ev

!    total energy              =      -4.18357402 Ry
     Harris-Foulkes estimate   =      -4.18357402 Ry
     estimated scf accuracy    <          1.2E-11 Ry

     The total energy is the sum of the following terms:

     one-electron contribution =       2.94496390 Ry
     hartree contribution      =       0.01003798 Ry
     xc contribution           =      -1.63465302 Ry
     ewald contribution        =      -5.50183452 Ry
     smearing contrib. (-TS)   =      -0.00208835 Ry

     convergence has been achieved in   5 iterations

     Writing output data file pwscf.save/

     init_run     :      0.01s CPU      0.02s WALL (       1 calls)
     electrons    :      0.16s CPU      0.19s WALL (       1 calls)

     Called by init_run:
     wfcinit      :      0.01s CPU      0.01s WALL (       1 calls)
     potinit      :      0.00s CPU      0.00s WALL (       1 calls)
     hinit0       :      0.00s CPU      0.00s WALL (       1 calls)

     Called by electrons:
     c_bands      :      0.14s CPU      0.16s WALL (       6 calls)
     sum_band     :      0.02s CPU      0.02s WALL (       6 calls)
     v_of_rho     :      0.00s CPU      0.00s WALL (       6 calls)
     mix_rho      :      0.00s CPU      0.00s WALL (       6 calls)

     Called by c_bands:
     init_us_2    :      0.00s CPU      0.00s WALL (     364 calls)
     cegterg      :      0.13s CPU      0.16s WALL (     168 calls)

     Called by sum_band:

     Called by *egterg:
     h_psi        :      0.09s CPU      0.11s WALL (     502 calls)
     g_psi        :      0.00s CPU      0.00s WALL (     306 calls)
     cdiaghg      :      0.03s CPU      0.04s WALL (     446 calls)

     Called by h_psi:
     h_psi:pot    :      0.09s CPU      0.11s WALL (     502 calls)
     h_psi:calbec :      0.00s CPU      0.00s WALL (     502 calls)
     vloc_psi     :      0.09s CPU      0.10s WALL (     502 calls)
     add_vuspsi   :      0.00s CPU      0.00s WALL (     502 calls)

     General routines
     calbec       :      0.00s CPU      0.00s WALL (     502 calls)
     fft          :      0.00s CPU      0.00s WALL (      18 calls)
     ffts         :      0.00s CPU      0.00s WALL (       6 calls)
     fftw         :      0.09s CPU      0.11s WALL (    6176 calls)

     Parallel routines
     fft_scatt_xy :      0.01s CPU      0.02s WALL (    6200 calls)
     fft_scatt_yz :      0.02s CPU      0.03s WALL (    6200 calls)

     PWSCF        :      0.19s CPU      0.22s WALL


   This run was terminated on:  18:34:11  13Aug2019            

=------------------------------------------------------------------------------=
   JOB DONE.
=------------------------------------------------------------------------------=
