### Running on host: assam

     Program PWSCF v.6.4.1 starts on 13Aug2019 at 18:35: 1 

     This program is part of the open-source Quantum ESPRESSO suite
     for quantum simulation of materials; please cite
         "P. Giannozzi et al., J. Phys.:Condens. Matter 21 395502 (2009);
         "P. Giannozzi et al., J. Phys.:Condens. Matter 29 465901 (2017);
          URL http://www.quantum-espresso.org", 
     in publications or presentations arising from this work. More details at
     http://www.quantum-espresso.org/quote

     Parallel version (MPI), running on     2 processors

     MPI processes distributed on     1 nodes
     R & G space division:  proc/nbgrp/npool/nimage =       2
     Reading input from scf.Al.mv-smearing.dg0.15.nk-8.in

     Current dimensions of program PWSCF are:
     Max number of different atomic species (ntypx) = 10
     Max number of k-points (npk) =  40000
     Max angular momentum in pseudopotentials (lmaxx) =  3

     Subspace diagonalization in iterative solution of the eigenvalue problem:
     a serial algorithm will be used


     Parallelization info
     --------------------
     sticks:   dense  smooth     PW     G-vecs:    dense   smooth      PW
     Min          45      45     18                  304      304      83
     Max          46      46     19                  305      305      86
     Sum          91      91     37                  609      609     169



     bravais-lattice index     =            2
     lattice parameter (alat)  =       7.5000  a.u.
     unit-cell volume          =     105.4688 (a.u.)^3
     number of atoms/cell      =            1
     number of atomic types    =            1
     number of electrons       =         3.00
     number of Kohn-Sham states=            6
     kinetic-energy cutoff     =      12.0000  Ry
     charge density cutoff     =      48.0000  Ry
     convergence threshold     =      1.0E-09
     mixing beta               =       0.7000
     number of iterations used =            8  plain     mixing
     Exchange-correlation      =  SLA  PZ   NOGX NOGC ( 1  1  0  0 0 0)

     celldm(1)=   7.500000  celldm(2)=   0.000000  celldm(3)=   0.000000
     celldm(4)=   0.000000  celldm(5)=   0.000000  celldm(6)=   0.000000

     crystal axes: (cart. coord. in units of alat)
               a(1) = (  -0.500000   0.000000   0.500000 )  
               a(2) = (   0.000000   0.500000   0.500000 )  
               a(3) = (  -0.500000   0.500000   0.000000 )  

     reciprocal axes: (cart. coord. in units 2 pi/alat)
               b(1) = ( -1.000000 -1.000000  1.000000 )  
               b(2) = (  1.000000  1.000000  1.000000 )  
               b(3) = ( -1.000000  1.000000 -1.000000 )  


     PseudoPot. # 1 for Al read from file:
     /home/matic/pw/pseudo/Al.pz-vbc.UPF
     MD5 check sum: 614279c88ff8d45c90147292d03ed420
     Pseudo is Norm-conserving, Zval =  3.0
     Generated by new atomic code, or converted to UPF format
     Using radial grid of  171 points,  2 beta functions with: 
                l(1) =   0
                l(2) =   1

     atomic species   valence    mass     pseudopotential
        Al             3.00    26.98100     Al( 1.00)

     48 Sym. Ops., with inversion, found



   Cartesian axes

     site n.     atom                  positions (alat units)
         1           Al  tau(   1) = (   0.0000000   0.0000000   0.0000000  )

     number of k points=    60  Marzari-Vanderbilt smearing, width (Ry)=  0.1500
                       cart. coord. in units 2pi/alat
        k(    1) = (  -0.0625000   0.0625000   0.0625000), wk =   0.0078125
        k(    2) = (  -0.1875000   0.1875000  -0.0625000), wk =   0.0234375
        k(    3) = (  -0.3125000   0.3125000  -0.1875000), wk =   0.0234375
        k(    4) = (  -0.4375000   0.4375000  -0.3125000), wk =   0.0234375
        k(    5) = (   0.4375000  -0.4375000   0.5625000), wk =   0.0234375
        k(    6) = (   0.3125000  -0.3125000   0.4375000), wk =   0.0234375
        k(    7) = (   0.1875000  -0.1875000   0.3125000), wk =   0.0234375
        k(    8) = (   0.0625000  -0.0625000   0.1875000), wk =   0.0234375
        k(    9) = (  -0.0625000   0.3125000   0.0625000), wk =   0.0234375
        k(   10) = (  -0.1875000   0.4375000  -0.0625000), wk =   0.0468750
        k(   11) = (  -0.3125000   0.5625000  -0.1875000), wk =   0.0468750
        k(   12) = (   0.5625000  -0.3125000   0.6875000), wk =   0.0468750
        k(   13) = (   0.4375000  -0.1875000   0.5625000), wk =   0.0468750
        k(   14) = (   0.3125000  -0.0625000   0.4375000), wk =   0.0468750
        k(   15) = (   0.1875000   0.0625000   0.3125000), wk =   0.0468750
        k(   16) = (  -0.0625000   0.5625000   0.0625000), wk =   0.0234375
        k(   17) = (  -0.1875000   0.6875000  -0.0625000), wk =   0.0468750
        k(   18) = (   0.6875000  -0.1875000   0.8125000), wk =   0.0468750
        k(   19) = (   0.5625000  -0.0625000   0.6875000), wk =   0.0468750
        k(   20) = (   0.4375000   0.0625000   0.5625000), wk =   0.0468750
        k(   21) = (   0.3125000   0.1875000   0.4375000), wk =   0.0468750
        k(   22) = (  -0.0625000   0.8125000   0.0625000), wk =   0.0234375
        k(   23) = (   0.8125000  -0.0625000   0.9375000), wk =   0.0468750
        k(   24) = (   0.6875000   0.0625000   0.8125000), wk =   0.0468750
        k(   25) = (   0.5625000   0.1875000   0.6875000), wk =   0.0468750
        k(   26) = (   0.4375000   0.3125000   0.5625000), wk =   0.0468750
        k(   27) = (  -0.0625000  -0.9375000   0.0625000), wk =   0.0234375
        k(   28) = (  -0.1875000  -0.8125000  -0.0625000), wk =   0.0468750
        k(   29) = (  -0.3125000  -0.6875000  -0.1875000), wk =   0.0468750
        k(   30) = (  -0.0625000  -0.6875000   0.0625000), wk =   0.0234375
        k(   31) = (  -0.1875000  -0.5625000  -0.0625000), wk =   0.0468750
        k(   32) = (  -0.0625000  -0.4375000   0.0625000), wk =   0.0234375
        k(   33) = (  -0.1875000   0.1875000   0.1875000), wk =   0.0078125
        k(   34) = (  -0.3125000   0.3125000   0.0625000), wk =   0.0234375
        k(   35) = (  -0.4375000   0.4375000  -0.0625000), wk =   0.0234375
        k(   36) = (   0.4375000  -0.4375000   0.8125000), wk =   0.0234375
        k(   37) = (   0.3125000  -0.3125000   0.6875000), wk =   0.0234375
        k(   38) = (   0.1875000  -0.1875000   0.5625000), wk =   0.0234375
        k(   39) = (  -0.1875000   0.4375000   0.1875000), wk =   0.0234375
        k(   40) = (  -0.3125000   0.5625000   0.0625000), wk =   0.0468750
        k(   41) = (   0.5625000  -0.3125000   0.9375000), wk =   0.0468750
        k(   42) = (   0.4375000  -0.1875000   0.8125000), wk =   0.0468750
        k(   43) = (   0.3125000  -0.0625000   0.6875000), wk =   0.0468750
        k(   44) = (  -0.1875000   0.6875000   0.1875000), wk =   0.0234375
        k(   45) = (   0.6875000  -0.1875000   1.0625000), wk =   0.0468750
        k(   46) = (   0.5625000  -0.0625000   0.9375000), wk =   0.0468750
        k(   47) = (   0.4375000   0.0625000   0.8125000), wk =   0.0468750
        k(   48) = (  -0.1875000  -1.0625000   0.1875000), wk =   0.0234375
        k(   49) = (  -0.3125000  -0.9375000   0.0625000), wk =   0.0468750
        k(   50) = (  -0.1875000  -0.8125000   0.1875000), wk =   0.0234375
        k(   51) = (  -0.3125000   0.3125000   0.3125000), wk =   0.0078125
        k(   52) = (  -0.4375000   0.4375000   0.1875000), wk =   0.0234375
        k(   53) = (   0.4375000  -0.4375000   1.0625000), wk =   0.0234375
        k(   54) = (   0.3125000  -0.3125000   0.9375000), wk =   0.0234375
        k(   55) = (  -0.3125000   0.5625000   0.3125000), wk =   0.0234375
        k(   56) = (   0.5625000  -0.3125000   1.1875000), wk =   0.0468750
        k(   57) = (   0.4375000  -0.1875000   1.0625000), wk =   0.0468750
        k(   58) = (  -0.3125000  -1.1875000   0.3125000), wk =   0.0234375
        k(   59) = (  -0.4375000   0.4375000   0.4375000), wk =   0.0078125
        k(   60) = (   0.4375000  -0.4375000   1.3125000), wk =   0.0234375

     Dense  grid:      609 G-vectors     FFT dimensions: (  12,  12,  12)

     Estimated max dynamical RAM per process >       0.51 MB

     Estimated total dynamical RAM >       1.01 MB

     Initial potential from superposition of free atoms

     starting charge    2.99794, renormalised to    3.00000
     Starting wfcs are    4 randomized atomic wfcs +    2 random wfcs

     total cpu time spent up to now is        0.0 secs

     Self-consistent Calculation

     iteration #  1     ecut=    12.00 Ry     beta= 0.70
     Davidson diagonalization with overlap
     ethr =  1.00E-02,  avg # of iterations =  4.2

     Threshold (ethr) on eigenvalues was too large:
     Diagonalizing with lowered threshold

     Davidson diagonalization with overlap
     ethr =  2.02E-04,  avg # of iterations =  1.1

     total cpu time spent up to now is        0.2 secs

     total energy              =      -4.18462630 Ry
     Harris-Foulkes estimate   =      -4.18545074 Ry
     estimated scf accuracy    <       0.00606103 Ry

     iteration #  2     ecut=    12.00 Ry     beta= 0.70
     Davidson diagonalization with overlap
     ethr =  2.02E-04,  avg # of iterations =  1.0

     total cpu time spent up to now is        0.3 secs

     total energy              =      -4.18461842 Ry
     Harris-Foulkes estimate   =      -4.18465116 Ry
     estimated scf accuracy    <       0.00047190 Ry

     iteration #  3     ecut=    12.00 Ry     beta= 0.70
     Davidson diagonalization with overlap
     ethr =  1.57E-05,  avg # of iterations =  1.3

     total cpu time spent up to now is        0.3 secs

     total energy              =      -4.18462119 Ry
     Harris-Foulkes estimate   =      -4.18462113 Ry
     estimated scf accuracy    <       0.00000032 Ry

     iteration #  4     ecut=    12.00 Ry     beta= 0.70
     Davidson diagonalization with overlap
     ethr =  1.06E-08,  avg # of iterations =  1.9

     total cpu time spent up to now is        0.4 secs

     total energy              =      -4.18462121 Ry
     Harris-Foulkes estimate   =      -4.18462121 Ry
     estimated scf accuracy    <          3.2E-09 Ry

     iteration #  5     ecut=    12.00 Ry     beta= 0.70
     Davidson diagonalization with overlap
     ethr =  1.06E-10,  avg # of iterations =  1.5

     total cpu time spent up to now is        0.4 secs

     End of self-consistent calculation

          k =-0.0625 0.0625 0.0625 (    65 PWs)   bands (ev):

    -3.0492  19.3455  20.8142  20.8142  23.1674  23.1674

          k =-0.1875 0.1875-0.0625 (    65 PWs)   bands (ev):

    -2.4555  15.9290  18.1746  21.3504  23.3905  23.8186

          k =-0.3125 0.3125-0.1875 (    72 PWs)   bands (ev):

    -0.9970  11.1122  17.4197  20.7331  21.8009  23.3112

          k =-0.4375 0.4375-0.3125 (    73 PWs)   bands (ev):

     1.3004   6.8546  17.4321  19.7882  20.8125  21.3885

          k = 0.4375-0.4375 0.5625 (    74 PWs)   bands (ev):

     3.2597   4.4034  18.1901  18.5582  20.1084  21.5561

          k = 0.3125-0.3125 0.4375 (    74 PWs)   bands (ev):

     0.4430   8.2008  18.0536  19.5375  19.7272  23.0356

          k = 0.1875-0.1875 0.3125 (    69 PWs)   bands (ev):

    -1.5772  12.6770  18.2791  19.7342  21.9202  24.1755

          k = 0.0625-0.0625 0.1875 (    64 PWs)   bands (ev):

    -2.7511  17.6581  19.2208  20.3221  22.5011  24.5214

          k =-0.0625 0.3125 0.0625 (    68 PWs)   bands (ev):

    -2.1651  16.1211  17.7739  18.9558  21.4659  21.8442

          k =-0.1875 0.4375-0.0625 (    73 PWs)   bands (ev):

    -0.9986  13.0561  15.5388  18.6282  19.6028  22.3539

          k =-0.3125 0.5625-0.1875 (    73 PWs)   bands (ev):

     1.0148   8.7145  15.1861  16.3668  19.6635  24.4698

          k = 0.5625-0.3125 0.6875 (    76 PWs)   bands (ev):

     3.8075   4.9514  14.7078  15.8024  20.2419  23.0636

          k = 0.4375-0.1875 0.5625 (    75 PWs)   bands (ev):

     1.8642   7.3724  13.9923  17.0355  21.4947  22.3309

          k = 0.3125-0.0625 0.4375 (    74 PWs)   bands (ev):

    -0.4206  11.4825  14.1300  19.0470  22.0264  23.4567

          k = 0.1875 0.0625 0.3125 (    68 PWs)   bands (ev):

    -1.8702  14.3742  16.7774  20.7447  21.7236  23.3365

          k =-0.0625 0.5625 0.0625 (    76 PWs)   bands (ev):

    -0.1349  13.7504  15.2568  15.5964  16.6379  19.8229

          k =-0.1875 0.6875-0.0625 (    77 PWs)   bands (ev):

     1.5763  11.1817  12.6066  13.8901  17.8146  20.8651

          k = 0.6875-0.1875 0.8125 (    75 PWs)   bands (ev):

     4.0800   7.3579  10.8378  14.0117  18.4398  24.5984

          k = 0.5625-0.0625 0.6875 (    73 PWs)   bands (ev):

     4.0946   7.2387   9.9395  15.0164  19.5718  26.2139

          k = 0.4375 0.0625 0.5625 (    75 PWs)   bands (ev):

     1.5794   9.0968  11.8115  16.7884  21.3479  23.9153

          k = 0.3125 0.1875 0.4375 (    72 PWs)   bands (ev):

    -0.1292   9.7868  16.2217  19.2791  20.4890  23.6058

          k =-0.0625 0.8125 0.0625 (    76 PWs)   bands (ev):

     2.9737   9.7194  12.4444  14.3963  15.2869  18.6555

          k = 0.8125-0.0625 0.9375 (    74 PWs)   bands (ev):

     5.0865   7.6654  10.4346  13.0748  17.0285  20.1999

          k = 0.6875 0.0625 0.8125 (    74 PWs)   bands (ev):

     5.8759   7.0563   8.6037  13.7493  18.1861  24.4165

          k = 0.5625 0.1875 0.6875 (    78 PWs)   bands (ev):

     4.3541   5.4841  12.1645  15.2681  19.7969  24.5322

          k = 0.4375 0.3125 0.5625 (    73 PWs)   bands (ev):

     2.4280   5.7668  16.4574  17.5298  20.7843  21.8888

          k =-0.0625-0.9375 0.0625 (    72 PWs)   bands (ev):

     4.8202   7.4035  12.1776  14.1594  15.0184  18.4421

          k =-0.1875-0.8125-0.0625 (    77 PWs)   bands (ev):

     3.2501   9.9297  10.7368  13.3376  17.2907  20.4101

          k =-0.3125-0.6875-0.1875 (    74 PWs)   bands (ev):

     2.4260   7.9040  13.4013  14.5669  18.9471  24.8880

          k =-0.0625-0.6875 0.0625 (    76 PWs)   bands (ev):

     1.2929  12.3365  13.0043  14.8751  15.8272  19.1329

          k =-0.1875-0.5625-0.0625 (    76 PWs)   bands (ev):

     0.1538  11.9939  14.4799  15.6266  18.5930  21.5241

          k =-0.0625-0.4375 0.0625 (    76 PWs)   bands (ev):

    -1.2933  14.8122  16.5623  17.6410  18.3959  20.6800

          k =-0.1875 0.1875 0.1875 (    65 PWs)   bands (ev):

    -2.1600  14.2330  19.7348  19.7348  23.1335  24.4698

          k =-0.3125 0.3125 0.0625 (    71 PWs)   bands (ev):

    -1.2885  12.8048  15.3842  21.4332  22.5082  23.5132

          k =-0.4375 0.4375-0.0625 (    73 PWs)   bands (ev):

     0.4428  10.1616  12.8657  19.0451  21.1326  24.0621

          k = 0.4375-0.4375 0.8125 (    77 PWs)   bands (ev):

     2.9833   6.2894  12.9665  17.3216  19.2970  24.3380

          k = 0.3125-0.3125 0.6875 (    77 PWs)   bands (ev):

     2.9825   6.3035  13.9776  16.3384  18.1800  25.3227

          k = 0.1875-0.1875 0.5625 (    75 PWs)   bands (ev):

     0.4426  10.2881  15.7727  16.0873  17.8125  23.3939

          k =-0.1875 0.4375 0.1875 (    71 PWs)   bands (ev):

    -0.7058  11.3576  17.0601  18.6199  18.9847  24.1937

          k =-0.3125 0.5625 0.0625 (    75 PWs)   bands (ev):

     0.7266  10.4207  13.0840  16.1084  21.1408  23.5301

          k = 0.5625-0.3125 0.9375 (    75 PWs)   bands (ev):

     2.9841   8.2988  10.9874  14.0701  22.4224  23.3270

          k = 0.4375-0.1875 0.8125 (    74 PWs)   bands (ev):

     4.8897   6.0350  11.5482  12.8594  21.1804  24.2033

          k = 0.3125-0.0625 0.6875 (    76 PWs)   bands (ev):

     2.1411   9.6191  12.1882  13.3913  20.4037  23.0630

          k =-0.1875 0.6875 0.1875 (    77 PWs)   bands (ev):

     1.8599   9.4800  12.9314  15.3616  17.0077  22.7511

          k = 0.6875-0.1875 1.0625 (    76 PWs)   bands (ev):

     3.8066   9.0683  10.4717  11.9763  19.8941  22.6803

          k = 0.5625-0.0625 0.9375 (    75 PWs)   bands (ev):

     6.4066   7.4789   8.9597  10.4654  22.5044  24.7204

          k = 0.4375 0.0625 0.8125 (    73 PWs)   bands (ev):

     4.6315   7.7655  10.3211  11.6158  22.7235  23.8731

          k =-0.1875-1.0625 0.1875 (    74 PWs)   bands (ev):

     5.3507   7.8645   8.8215  14.6418  16.1928  22.0960

          k =-0.3125-0.9375 0.0625 (    75 PWs)   bands (ev):

     5.6184   8.1372   8.9156  11.6450  19.6376  22.4769

          k =-0.1875-0.8125 0.1875 (    76 PWs)   bands (ev):

     3.5297   8.9095  10.3401  14.8800  16.4635  22.3131

          k =-0.3125 0.3125 0.3125 (    74 PWs)   bands (ev):

    -0.4195   9.5376  19.2836  19.2836  22.2758  22.2758

          k =-0.4375 0.4375 0.1875 (    74 PWs)   bands (ev):

     0.7285   8.4511  15.0185  19.2928  21.2828  22.3162

          k = 0.4375-0.4375 1.0625 (    75 PWs)   bands (ev):

     2.7066   8.0338  10.7531  17.0778  19.0755  26.1237

          k = 0.3125-0.3125 0.9375 (    74 PWs)   bands (ev):

     5.4444   6.4510   9.1274  15.6146  17.4151  26.6828

          k =-0.3125 0.5625 0.3125 (    73 PWs)   bands (ev):

     1.5835   7.1212  16.7845  17.0717  18.8935  24.0576

          k = 0.5625-0.3125 1.1875 (    76 PWs)   bands (ev):

     3.2614   6.5612  13.1394  14.3692  21.5953  22.8015

          k = 0.4375-0.1875 1.0625 (    75 PWs)   bands (ev):

     5.7017   6.7159   9.3666  12.5340  20.9500  25.7476

          k =-0.3125-1.1875 0.3125 (    74 PWs)   bands (ev):

     4.6164   5.7750  11.3826  15.8551  17.6799  26.7813

          k =-0.4375 0.4375 0.4375 (    73 PWs)   bands (ev):

     2.1476   5.4962  19.5503  19.5503  20.5507  20.5507

          k = 0.4375-0.4375 1.3125 (    75 PWs)   bands (ev):

     3.5351   4.6772  15.5122  17.8143  19.7127  22.8237

     the Fermi energy is     8.3002 ev

!    total energy              =      -4.18462121 Ry
     Harris-Foulkes estimate   =      -4.18462121 Ry
     estimated scf accuracy    <          1.2E-11 Ry

     The total energy is the sum of the following terms:

     one-electron contribution =       2.94529387 Ry
     hartree contribution      =       0.00993607 Ry
     xc contribution           =      -1.63457228 Ry
     ewald contribution        =      -5.50183452 Ry
     smearing contrib. (-TS)   =      -0.00344435 Ry

     convergence has been achieved in   5 iterations

     Writing output data file pwscf.save/

     init_run     :      0.02s CPU      0.03s WALL (       1 calls)
     electrons    :      0.35s CPU      0.40s WALL (       1 calls)

     Called by init_run:
     wfcinit      :      0.01s CPU      0.02s WALL (       1 calls)
     potinit      :      0.00s CPU      0.00s WALL (       1 calls)
     hinit0       :      0.00s CPU      0.00s WALL (       1 calls)

     Called by electrons:
     c_bands      :      0.31s CPU      0.34s WALL (       6 calls)
     sum_band     :      0.04s CPU      0.05s WALL (       6 calls)
     v_of_rho     :      0.00s CPU      0.00s WALL (       6 calls)
     mix_rho      :      0.00s CPU      0.00s WALL (       6 calls)

     Called by c_bands:
     init_us_2    :      0.01s CPU      0.01s WALL (     780 calls)
     cegterg      :      0.30s CPU      0.33s WALL (     360 calls)

     Called by sum_band:

     Called by *egterg:
     h_psi        :      0.20s CPU      0.23s WALL (    1081 calls)
     g_psi        :      0.00s CPU      0.00s WALL (     661 calls)
     cdiaghg      :      0.07s CPU      0.08s WALL (     961 calls)

     Called by h_psi:
     h_psi:pot    :      0.20s CPU      0.23s WALL (    1081 calls)
     h_psi:calbec :      0.01s CPU      0.01s WALL (    1081 calls)
     vloc_psi     :      0.18s CPU      0.21s WALL (    1081 calls)
     add_vuspsi   :      0.00s CPU      0.00s WALL (    1081 calls)

     General routines
     calbec       :      0.00s CPU      0.01s WALL (    1081 calls)
     fft          :      0.00s CPU      0.00s WALL (      18 calls)
     ffts         :      0.00s CPU      0.00s WALL (       6 calls)
     fftw         :      0.19s CPU      0.23s WALL (   13262 calls)

     Parallel routines
     fft_scatt_xy :      0.03s CPU      0.03s WALL (   13286 calls)
     fft_scatt_yz :      0.04s CPU      0.05s WALL (   13286 calls)

     PWSCF        :      0.39s CPU      0.45s WALL


   This run was terminated on:  18:35: 1  13Aug2019            

=------------------------------------------------------------------------------=
   JOB DONE.
=------------------------------------------------------------------------------=
