### Running on host: assam

     Program PWSCF v.6.4.1 starts on 13Aug2019 at 18:34:49 

     This program is part of the open-source Quantum ESPRESSO suite
     for quantum simulation of materials; please cite
         "P. Giannozzi et al., J. Phys.:Condens. Matter 21 395502 (2009);
         "P. Giannozzi et al., J. Phys.:Condens. Matter 29 465901 (2017);
          URL http://www.quantum-espresso.org", 
     in publications or presentations arising from this work. More details at
     http://www.quantum-espresso.org/quote

     Parallel version (MPI), running on     2 processors

     MPI processes distributed on     1 nodes
     R & G space division:  proc/nbgrp/npool/nimage =       2
     Reading input from scf.Al.mv-smearing.dg0.15.nk-6.in

     Current dimensions of program PWSCF are:
     Max number of different atomic species (ntypx) = 10
     Max number of k-points (npk) =  40000
     Max angular momentum in pseudopotentials (lmaxx) =  3

     Subspace diagonalization in iterative solution of the eigenvalue problem:
     a serial algorithm will be used


     Parallelization info
     --------------------
     sticks:   dense  smooth     PW     G-vecs:    dense   smooth      PW
     Min          45      45     18                  304      304      83
     Max          46      46     19                  305      305      86
     Sum          91      91     37                  609      609     169



     bravais-lattice index     =            2
     lattice parameter (alat)  =       7.5000  a.u.
     unit-cell volume          =     105.4688 (a.u.)^3
     number of atoms/cell      =            1
     number of atomic types    =            1
     number of electrons       =         3.00
     number of Kohn-Sham states=            6
     kinetic-energy cutoff     =      12.0000  Ry
     charge density cutoff     =      48.0000  Ry
     convergence threshold     =      1.0E-09
     mixing beta               =       0.7000
     number of iterations used =            8  plain     mixing
     Exchange-correlation      =  SLA  PZ   NOGX NOGC ( 1  1  0  0 0 0)

     celldm(1)=   7.500000  celldm(2)=   0.000000  celldm(3)=   0.000000
     celldm(4)=   0.000000  celldm(5)=   0.000000  celldm(6)=   0.000000

     crystal axes: (cart. coord. in units of alat)
               a(1) = (  -0.500000   0.000000   0.500000 )  
               a(2) = (   0.000000   0.500000   0.500000 )  
               a(3) = (  -0.500000   0.500000   0.000000 )  

     reciprocal axes: (cart. coord. in units 2 pi/alat)
               b(1) = ( -1.000000 -1.000000  1.000000 )  
               b(2) = (  1.000000  1.000000  1.000000 )  
               b(3) = ( -1.000000  1.000000 -1.000000 )  


     PseudoPot. # 1 for Al read from file:
     /home/matic/pw/pseudo/Al.pz-vbc.UPF
     MD5 check sum: 614279c88ff8d45c90147292d03ed420
     Pseudo is Norm-conserving, Zval =  3.0
     Generated by new atomic code, or converted to UPF format
     Using radial grid of  171 points,  2 beta functions with: 
                l(1) =   0
                l(2) =   1

     atomic species   valence    mass     pseudopotential
        Al             3.00    26.98100     Al( 1.00)

     48 Sym. Ops., with inversion, found



   Cartesian axes

     site n.     atom                  positions (alat units)
         1           Al  tau(   1) = (   0.0000000   0.0000000   0.0000000  )

     number of k points=    28  Marzari-Vanderbilt smearing, width (Ry)=  0.1500
                       cart. coord. in units 2pi/alat
        k(    1) = (  -0.0833333   0.0833333   0.0833333), wk =   0.0185185
        k(    2) = (  -0.2500000   0.2500000  -0.0833333), wk =   0.0555556
        k(    3) = (  -0.4166667   0.4166667  -0.2500000), wk =   0.0555556
        k(    4) = (   0.4166667  -0.4166667   0.5833333), wk =   0.0555556
        k(    5) = (   0.2500000  -0.2500000   0.4166667), wk =   0.0555556
        k(    6) = (   0.0833333  -0.0833333   0.2500000), wk =   0.0555556
        k(    7) = (  -0.0833333   0.4166667   0.0833333), wk =   0.0555556
        k(    8) = (  -0.2500000   0.5833333  -0.0833333), wk =   0.1111111
        k(    9) = (   0.5833333  -0.2500000   0.7500000), wk =   0.1111111
        k(   10) = (   0.4166667  -0.0833333   0.5833333), wk =   0.1111111
        k(   11) = (   0.2500000   0.0833333   0.4166667), wk =   0.1111111
        k(   12) = (  -0.0833333   0.7500000   0.0833333), wk =   0.0555556
        k(   13) = (   0.7500000  -0.0833333   0.9166667), wk =   0.1111111
        k(   14) = (   0.5833333   0.0833333   0.7500000), wk =   0.1111111
        k(   15) = (   0.4166667   0.2500000   0.5833333), wk =   0.1111111
        k(   16) = (  -0.0833333  -0.9166667   0.0833333), wk =   0.0555556
        k(   17) = (  -0.2500000  -0.7500000  -0.0833333), wk =   0.1111111
        k(   18) = (  -0.0833333  -0.5833333   0.0833333), wk =   0.0555556
        k(   19) = (  -0.2500000   0.2500000   0.2500000), wk =   0.0185185
        k(   20) = (  -0.4166667   0.4166667   0.0833333), wk =   0.0555556
        k(   21) = (   0.4166667  -0.4166667   0.9166667), wk =   0.0555556
        k(   22) = (   0.2500000  -0.2500000   0.7500000), wk =   0.0555556
        k(   23) = (  -0.2500000   0.5833333   0.2500000), wk =   0.0555556
        k(   24) = (   0.5833333  -0.2500000   1.0833333), wk =   0.1111111
        k(   25) = (   0.4166667  -0.0833333   0.9166667), wk =   0.1111111
        k(   26) = (  -0.2500000  -1.0833333   0.2500000), wk =   0.0555556
        k(   27) = (  -0.4166667   0.4166667   0.4166667), wk =   0.0185185
        k(   28) = (   0.4166667  -0.4166667   1.2500000), wk =   0.0555556

     Dense  grid:      609 G-vectors     FFT dimensions: (  12,  12,  12)

     Estimated max dynamical RAM per process >       0.40 MB

     Estimated total dynamical RAM >       0.79 MB

     Initial potential from superposition of free atoms

     starting charge    2.99794, renormalised to    3.00000
     Starting wfcs are    4 randomized atomic wfcs +    2 random wfcs

     total cpu time spent up to now is        0.0 secs

     Self-consistent Calculation

     iteration #  1     ecut=    12.00 Ry     beta= 0.70
     Davidson diagonalization with overlap
     ethr =  1.00E-02,  avg # of iterations =  4.0

     Threshold (ethr) on eigenvalues was too large:
     Diagonalizing with lowered threshold

     Davidson diagonalization with overlap
     ethr =  2.02E-04,  avg # of iterations =  1.2

     total cpu time spent up to now is        0.1 secs

     total energy              =      -4.18463194 Ry
     Harris-Foulkes estimate   =      -4.18545556 Ry
     estimated scf accuracy    <       0.00605916 Ry

     iteration #  2     ecut=    12.00 Ry     beta= 0.70
     Davidson diagonalization with overlap
     ethr =  2.02E-04,  avg # of iterations =  1.0

     total cpu time spent up to now is        0.1 secs

     total energy              =      -4.18462411 Ry
     Harris-Foulkes estimate   =      -4.18465673 Ry
     estimated scf accuracy    <       0.00047197 Ry

     iteration #  3     ecut=    12.00 Ry     beta= 0.70
     Davidson diagonalization with overlap
     ethr =  1.57E-05,  avg # of iterations =  1.4

     total cpu time spent up to now is        0.2 secs

     total energy              =      -4.18462687 Ry
     Harris-Foulkes estimate   =      -4.18462681 Ry
     estimated scf accuracy    <       0.00000031 Ry

     iteration #  4     ecut=    12.00 Ry     beta= 0.70
     Davidson diagonalization with overlap
     ethr =  1.05E-08,  avg # of iterations =  1.9

     total cpu time spent up to now is        0.2 secs

     total energy              =      -4.18462689 Ry
     Harris-Foulkes estimate   =      -4.18462689 Ry
     estimated scf accuracy    <          3.0E-09 Ry

     iteration #  5     ecut=    12.00 Ry     beta= 0.70
     Davidson diagonalization with overlap
     ethr =  1.00E-10,  avg # of iterations =  1.4

     total cpu time spent up to now is        0.2 secs

     End of self-consistent calculation

          k =-0.0833 0.0833 0.0833 (    65 PWs)   bands (ev):

    -2.9627  18.4941  20.6066  20.6066  23.3324  23.5029

          k =-0.2500 0.2500-0.0833 (    67 PWs)   bands (ev):

    -1.9144  14.0412  17.0593  21.5242  22.8698  24.0758

          k =-0.4167 0.4167-0.2500 (    74 PWs)   bands (ev):

     0.6536   8.0366  16.5829  19.8828  21.2485  21.6874

          k = 0.4167-0.4167 0.5833 (    74 PWs)   bands (ev):

     3.1577   4.6644  17.4834  18.1348  19.8509  22.1324

          k = 0.2500-0.2500 0.4167 (    71 PWs)   bands (ev):

    -0.3649   9.9346  17.6823  19.2934  19.7615  24.3077

          k = 0.0833-0.0833 0.2500 (    66 PWs)   bands (ev):

    -2.4371  16.2853  18.5196  19.8443  22.4253  23.5000

          k =-0.0833 0.4167 0.0833 (    72 PWs)   bands (ev):

    -1.3995  14.4329  16.7957  18.1069  18.9832  21.2870

          k =-0.2500 0.5833-0.0833 (    75 PWs)   bands (ev):

     0.6516  10.7544  13.9218  15.3920  19.4752  22.7233

          k = 0.5833-0.2500 0.7500 (    74 PWs)   bands (ev):

     4.1327   5.6354  12.9454  14.4540  20.1883  24.1016

          k = 0.4167-0.0833 0.5833 (    74 PWs)   bands (ev):

     1.6639   8.8752  12.1757  16.2311  21.9922  23.1175

          k = 0.2500 0.0833 0.4167 (    72 PWs)   bands (ev):

    -0.8813  12.1720  15.3268  19.3595  20.7455  23.7158

          k =-0.0833 0.7500 0.0833 (    77 PWs)   bands (ev):

     2.1592  11.0364  12.1255  14.6525  15.7806  19.3133

          k = 0.7500-0.0833 0.9167 (    76 PWs)   bands (ev):

     5.0464   8.2357   9.4083  12.6737  18.1073  21.5839

          k = 0.5833 0.0833 0.7500 (    75 PWs)   bands (ev):

     5.1038   6.5115   9.7986  13.9611  19.7699  26.1775

          k = 0.4167 0.2500 0.5833 (    75 PWs)   bands (ev):

     2.1652   6.5933  15.2377  16.6802  20.9318  22.3993

          k =-0.0833-0.9167 0.0833 (    74 PWs)   bands (ev):

     4.5690   7.8005  11.6329  14.2291  15.2951  18.9111

          k =-0.2500-0.7500-0.0833 (    77 PWs)   bands (ev):

     2.6568   9.7878  11.5282  13.1797  18.5685  21.9666

          k =-0.0833-0.5833 0.0833 (    76 PWs)   bands (ev):

     0.1405  13.0168  14.8192  15.5070  16.7544  20.1328

          k =-0.2500 0.2500 0.2500 (    68 PWs)   bands (ev):

    -1.3947  11.8138  19.4222  19.4222  23.0015  23.3870

          k =-0.4167 0.4167 0.0833 (    73 PWs)   bands (ev):

     0.1442  10.2967  13.5723  19.4438  21.5252  23.4646

          k = 0.4167-0.4167 0.9167 (    75 PWs)   bands (ev):

     3.1591   7.4521  10.7723  16.8222  18.7939  26.1991

          k = 0.2500-0.2500 0.7500 (    74 PWs)   bands (ev):

     3.1570   7.5381  12.0569  15.5170  17.2643  24.7349

          k =-0.2500 0.5833 0.2500 (    75 PWs)   bands (ev):

     1.1592   8.5010  15.7350  16.3794  18.1774  25.3726

          k = 0.5833-0.2500 1.0833 (    76 PWs)   bands (ev):

     3.6482   7.9208  11.1431  12.6890  22.2002  23.6907

          k = 0.4167-0.0833 0.9167 (    75 PWs)   bands (ev):

     5.9926   7.4308   9.2242  10.9577  21.7933  24.6757

          k =-0.2500-1.0833 0.2500 (    74 PWs)   bands (ev):

     5.5166   7.0347   8.8682  15.0898  16.7817  24.3816

          k =-0.4167 0.4167 0.4167 (    73 PWs)   bands (ev):

     1.6661   6.1212  19.4556  19.4556  20.7881  20.7881

          k = 0.4167-0.4167 1.2500 (    79 PWs)   bands (ev):

     3.6455   5.1422  13.9158  17.2560  19.1885  23.9264

     the Fermi energy is     8.3022 ev

!    total energy              =      -4.18462689 Ry
     Harris-Foulkes estimate   =      -4.18462689 Ry
     estimated scf accuracy    <          1.2E-11 Ry

     The total energy is the sum of the following terms:

     one-electron contribution =       2.94550542 Ry
     hartree contribution      =       0.00994185 Ry
     xc contribution           =      -1.63458388 Ry
     ewald contribution        =      -5.50183452 Ry
     smearing contrib. (-TS)   =      -0.00365576 Ry

     convergence has been achieved in   5 iterations

     Writing output data file pwscf.save/

     init_run     :      0.01s CPU      0.01s WALL (       1 calls)
     electrons    :      0.17s CPU      0.19s WALL (       1 calls)

     Called by init_run:
     wfcinit      :      0.01s CPU      0.01s WALL (       1 calls)
     potinit      :      0.00s CPU      0.00s WALL (       1 calls)
     hinit0       :      0.00s CPU      0.00s WALL (       1 calls)

     Called by electrons:
     c_bands      :      0.14s CPU      0.16s WALL (       6 calls)
     sum_band     :      0.02s CPU      0.03s WALL (       6 calls)
     v_of_rho     :      0.00s CPU      0.00s WALL (       6 calls)
     mix_rho      :      0.00s CPU      0.00s WALL (       6 calls)

     Called by c_bands:
     init_us_2    :      0.00s CPU      0.00s WALL (     364 calls)
     cegterg      :      0.14s CPU      0.16s WALL (     168 calls)

     Called by sum_band:

     Called by *egterg:
     h_psi        :      0.09s CPU      0.11s WALL (     504 calls)
     g_psi        :      0.00s CPU      0.00s WALL (     308 calls)
     cdiaghg      :      0.03s CPU      0.04s WALL (     448 calls)

     Called by h_psi:
     h_psi:pot    :      0.09s CPU      0.11s WALL (     504 calls)
     h_psi:calbec :      0.00s CPU      0.00s WALL (     504 calls)
     vloc_psi     :      0.09s CPU      0.10s WALL (     504 calls)
     add_vuspsi   :      0.00s CPU      0.00s WALL (     504 calls)

     General routines
     calbec       :      0.00s CPU      0.00s WALL (     504 calls)
     fft          :      0.00s CPU      0.00s WALL (      18 calls)
     ffts         :      0.00s CPU      0.00s WALL (       6 calls)
     fftw         :      0.09s CPU      0.11s WALL (    6182 calls)

     Parallel routines
     fft_scatt_xy :      0.01s CPU      0.02s WALL (    6206 calls)
     fft_scatt_yz :      0.02s CPU      0.03s WALL (    6206 calls)

     PWSCF        :      0.20s CPU      0.23s WALL


   This run was terminated on:  18:34:49  13Aug2019            

=------------------------------------------------------------------------------=
   JOB DONE.
=------------------------------------------------------------------------------=
