### Running on host: assam

     Program PWSCF v.6.4.1 starts on 13Aug2019 at 18:34:47 

     This program is part of the open-source Quantum ESPRESSO suite
     for quantum simulation of materials; please cite
         "P. Giannozzi et al., J. Phys.:Condens. Matter 21 395502 (2009);
         "P. Giannozzi et al., J. Phys.:Condens. Matter 29 465901 (2017);
          URL http://www.quantum-espresso.org", 
     in publications or presentations arising from this work. More details at
     http://www.quantum-espresso.org/quote

     Parallel version (MPI), running on     2 processors

     MPI processes distributed on     1 nodes
     R & G space division:  proc/nbgrp/npool/nimage =       2
     Reading input from scf.Al.mv-smearing.dg0.13.nk-6.in

     Current dimensions of program PWSCF are:
     Max number of different atomic species (ntypx) = 10
     Max number of k-points (npk) =  40000
     Max angular momentum in pseudopotentials (lmaxx) =  3

     Subspace diagonalization in iterative solution of the eigenvalue problem:
     a serial algorithm will be used


     Parallelization info
     --------------------
     sticks:   dense  smooth     PW     G-vecs:    dense   smooth      PW
     Min          45      45     18                  304      304      83
     Max          46      46     19                  305      305      86
     Sum          91      91     37                  609      609     169



     bravais-lattice index     =            2
     lattice parameter (alat)  =       7.5000  a.u.
     unit-cell volume          =     105.4688 (a.u.)^3
     number of atoms/cell      =            1
     number of atomic types    =            1
     number of electrons       =         3.00
     number of Kohn-Sham states=            6
     kinetic-energy cutoff     =      12.0000  Ry
     charge density cutoff     =      48.0000  Ry
     convergence threshold     =      1.0E-09
     mixing beta               =       0.7000
     number of iterations used =            8  plain     mixing
     Exchange-correlation      =  SLA  PZ   NOGX NOGC ( 1  1  0  0 0 0)

     celldm(1)=   7.500000  celldm(2)=   0.000000  celldm(3)=   0.000000
     celldm(4)=   0.000000  celldm(5)=   0.000000  celldm(6)=   0.000000

     crystal axes: (cart. coord. in units of alat)
               a(1) = (  -0.500000   0.000000   0.500000 )  
               a(2) = (   0.000000   0.500000   0.500000 )  
               a(3) = (  -0.500000   0.500000   0.000000 )  

     reciprocal axes: (cart. coord. in units 2 pi/alat)
               b(1) = ( -1.000000 -1.000000  1.000000 )  
               b(2) = (  1.000000  1.000000  1.000000 )  
               b(3) = ( -1.000000  1.000000 -1.000000 )  


     PseudoPot. # 1 for Al read from file:
     /home/matic/pw/pseudo/Al.pz-vbc.UPF
     MD5 check sum: 614279c88ff8d45c90147292d03ed420
     Pseudo is Norm-conserving, Zval =  3.0
     Generated by new atomic code, or converted to UPF format
     Using radial grid of  171 points,  2 beta functions with: 
                l(1) =   0
                l(2) =   1

     atomic species   valence    mass     pseudopotential
        Al             3.00    26.98100     Al( 1.00)

     48 Sym. Ops., with inversion, found



   Cartesian axes

     site n.     atom                  positions (alat units)
         1           Al  tau(   1) = (   0.0000000   0.0000000   0.0000000  )

     number of k points=    28  Marzari-Vanderbilt smearing, width (Ry)=  0.1300
                       cart. coord. in units 2pi/alat
        k(    1) = (  -0.0833333   0.0833333   0.0833333), wk =   0.0185185
        k(    2) = (  -0.2500000   0.2500000  -0.0833333), wk =   0.0555556
        k(    3) = (  -0.4166667   0.4166667  -0.2500000), wk =   0.0555556
        k(    4) = (   0.4166667  -0.4166667   0.5833333), wk =   0.0555556
        k(    5) = (   0.2500000  -0.2500000   0.4166667), wk =   0.0555556
        k(    6) = (   0.0833333  -0.0833333   0.2500000), wk =   0.0555556
        k(    7) = (  -0.0833333   0.4166667   0.0833333), wk =   0.0555556
        k(    8) = (  -0.2500000   0.5833333  -0.0833333), wk =   0.1111111
        k(    9) = (   0.5833333  -0.2500000   0.7500000), wk =   0.1111111
        k(   10) = (   0.4166667  -0.0833333   0.5833333), wk =   0.1111111
        k(   11) = (   0.2500000   0.0833333   0.4166667), wk =   0.1111111
        k(   12) = (  -0.0833333   0.7500000   0.0833333), wk =   0.0555556
        k(   13) = (   0.7500000  -0.0833333   0.9166667), wk =   0.1111111
        k(   14) = (   0.5833333   0.0833333   0.7500000), wk =   0.1111111
        k(   15) = (   0.4166667   0.2500000   0.5833333), wk =   0.1111111
        k(   16) = (  -0.0833333  -0.9166667   0.0833333), wk =   0.0555556
        k(   17) = (  -0.2500000  -0.7500000  -0.0833333), wk =   0.1111111
        k(   18) = (  -0.0833333  -0.5833333   0.0833333), wk =   0.0555556
        k(   19) = (  -0.2500000   0.2500000   0.2500000), wk =   0.0185185
        k(   20) = (  -0.4166667   0.4166667   0.0833333), wk =   0.0555556
        k(   21) = (   0.4166667  -0.4166667   0.9166667), wk =   0.0555556
        k(   22) = (   0.2500000  -0.2500000   0.7500000), wk =   0.0555556
        k(   23) = (  -0.2500000   0.5833333   0.2500000), wk =   0.0555556
        k(   24) = (   0.5833333  -0.2500000   1.0833333), wk =   0.1111111
        k(   25) = (   0.4166667  -0.0833333   0.9166667), wk =   0.1111111
        k(   26) = (  -0.2500000  -1.0833333   0.2500000), wk =   0.0555556
        k(   27) = (  -0.4166667   0.4166667   0.4166667), wk =   0.0185185
        k(   28) = (   0.4166667  -0.4166667   1.2500000), wk =   0.0555556

     Dense  grid:      609 G-vectors     FFT dimensions: (  12,  12,  12)

     Estimated max dynamical RAM per process >       0.40 MB

     Estimated total dynamical RAM >       0.79 MB

     Initial potential from superposition of free atoms

     starting charge    2.99794, renormalised to    3.00000
     Starting wfcs are    4 randomized atomic wfcs +    2 random wfcs

     total cpu time spent up to now is        0.0 secs

     Self-consistent Calculation

     iteration #  1     ecut=    12.00 Ry     beta= 0.70
     Davidson diagonalization with overlap
     ethr =  1.00E-02,  avg # of iterations =  4.0

     Threshold (ethr) on eigenvalues was too large:
     Diagonalizing with lowered threshold

     Davidson diagonalization with overlap
     ethr =  2.03E-04,  avg # of iterations =  1.2

     total cpu time spent up to now is        0.1 secs

     total energy              =      -4.18418921 Ry
     Harris-Foulkes estimate   =      -4.18501259 Ry
     estimated scf accuracy    <       0.00608607 Ry

     iteration #  2     ecut=    12.00 Ry     beta= 0.70
     Davidson diagonalization with overlap
     ethr =  2.03E-04,  avg # of iterations =  1.0

     total cpu time spent up to now is        0.1 secs

     total energy              =      -4.18418113 Ry
     Harris-Foulkes estimate   =      -4.18421381 Ry
     estimated scf accuracy    <       0.00047472 Ry

     iteration #  3     ecut=    12.00 Ry     beta= 0.70
     Davidson diagonalization with overlap
     ethr =  1.58E-05,  avg # of iterations =  1.4

     total cpu time spent up to now is        0.2 secs

     total energy              =      -4.18418387 Ry
     Harris-Foulkes estimate   =      -4.18418381 Ry
     estimated scf accuracy    <       0.00000031 Ry

     iteration #  4     ecut=    12.00 Ry     beta= 0.70
     Davidson diagonalization with overlap
     ethr =  1.04E-08,  avg # of iterations =  1.9

     total cpu time spent up to now is        0.2 secs

     total energy              =      -4.18418389 Ry
     Harris-Foulkes estimate   =      -4.18418389 Ry
     estimated scf accuracy    <          3.0E-09 Ry

     iteration #  5     ecut=    12.00 Ry     beta= 0.70
     Davidson diagonalization with overlap
     ethr =  9.98E-11,  avg # of iterations =  1.4

     total cpu time spent up to now is        0.2 secs

     End of self-consistent calculation

          k =-0.0833 0.0833 0.0833 (    65 PWs)   bands (ev):

    -2.9626  18.4943  20.6068  20.6068  23.3326  23.5031

          k =-0.2500 0.2500-0.0833 (    67 PWs)   bands (ev):

    -1.9143  14.0414  17.0595  21.5244  22.8700  24.0760

          k =-0.4167 0.4167-0.2500 (    74 PWs)   bands (ev):

     0.6537   8.0367  16.5831  19.8830  21.2487  21.6876

          k = 0.4167-0.4167 0.5833 (    74 PWs)   bands (ev):

     3.1579   4.6646  17.4836  18.1350  19.8510  22.1326

          k = 0.2500-0.2500 0.4167 (    71 PWs)   bands (ev):

    -0.3647   9.9347  17.6825  19.2936  19.7617  24.3079

          k = 0.0833-0.0833 0.2500 (    66 PWs)   bands (ev):

    -2.4370  16.2855  18.5198  19.8445  22.4255  23.5001

          k =-0.0833 0.4167 0.0833 (    72 PWs)   bands (ev):

    -1.3994  14.4331  16.7958  18.1071  18.9834  21.2871

          k =-0.2500 0.5833-0.0833 (    75 PWs)   bands (ev):

     0.6518  10.7546  13.9220  15.3921  19.4754  22.7234

          k = 0.5833-0.2500 0.7500 (    74 PWs)   bands (ev):

     4.1328   5.6355  12.9456  14.4541  20.1885  24.1018

          k = 0.4167-0.0833 0.5833 (    74 PWs)   bands (ev):

     1.6641   8.8754  12.1758  16.2313  21.9923  23.1177

          k = 0.2500 0.0833 0.4167 (    72 PWs)   bands (ev):

    -0.8811  12.1722  15.3269  19.3597  20.7457  23.7160

          k =-0.0833 0.7500 0.0833 (    77 PWs)   bands (ev):

     2.1594  11.0365  12.1258  14.6527  15.7809  19.3134

          k = 0.7500-0.0833 0.9167 (    76 PWs)   bands (ev):

     5.0465   8.2358   9.4085  12.6738  18.1075  21.5840

          k = 0.5833 0.0833 0.7500 (    75 PWs)   bands (ev):

     5.1039   6.5117   9.7988  13.9612  19.7700  26.1776

          k = 0.4167 0.2500 0.5833 (    75 PWs)   bands (ev):

     2.1654   6.5934  15.2378  16.6804  20.9320  22.3995

          k =-0.0833-0.9167 0.0833 (    74 PWs)   bands (ev):

     4.5692   7.8006  11.6331  14.2293  15.2953  18.9112

          k =-0.2500-0.7500-0.0833 (    77 PWs)   bands (ev):

     2.6569   9.7879  11.5283  13.1799  18.5687  21.9668

          k =-0.0833-0.5833 0.0833 (    76 PWs)   bands (ev):

     0.1407  13.0170  14.8193  15.5072  16.7546  20.1329

          k =-0.2500 0.2500 0.2500 (    68 PWs)   bands (ev):

    -1.3945  11.8140  19.4224  19.4224  23.0017  23.3872

          k =-0.4167 0.4167 0.0833 (    73 PWs)   bands (ev):

     0.1443  10.2969  13.5724  19.4440  21.5254  23.4648

          k = 0.4167-0.4167 0.9167 (    75 PWs)   bands (ev):

     3.1593   7.4523  10.7725  16.8224  18.7941  26.1993

          k = 0.2500-0.2500 0.7500 (    74 PWs)   bands (ev):

     3.1572   7.5383  12.0570  15.5171  17.2645  24.7351

          k =-0.2500 0.5833 0.2500 (    75 PWs)   bands (ev):

     1.1593   8.5011  15.7352  16.3795  18.1775  25.3728

          k = 0.5833-0.2500 1.0833 (    76 PWs)   bands (ev):

     3.6484   7.9210  11.1432  12.6892  22.2004  23.6909

          k = 0.4167-0.0833 0.9167 (    75 PWs)   bands (ev):

     5.9927   7.4310   9.2243  10.9579  21.7935  24.6759

          k =-0.2500-1.0833 0.2500 (    74 PWs)   bands (ev):

     5.5168   7.0349   8.8683  15.0900  16.7819  24.3817

          k =-0.4167 0.4167 0.4167 (    73 PWs)   bands (ev):

     1.6662   6.1214  19.4558  19.4558  20.7883  20.7883

          k = 0.4167-0.4167 1.2500 (    79 PWs)   bands (ev):

     3.6457   5.1424  13.9160  17.2562  19.1887  23.9266

     the Fermi energy is     8.3073 ev

!    total energy              =      -4.18418389 Ry
     Harris-Foulkes estimate   =      -4.18418389 Ry
     estimated scf accuracy    <          1.2E-11 Ry

     The total energy is the sum of the following terms:

     one-electron contribution =       2.94495127 Ry
     hartree contribution      =       0.00998854 Ry
     xc contribution           =      -1.63461813 Ry
     ewald contribution        =      -5.50183452 Ry
     smearing contrib. (-TS)   =      -0.00267105 Ry

     convergence has been achieved in   5 iterations

     Writing output data file pwscf.save/

     init_run     :      0.02s CPU      0.02s WALL (       1 calls)
     electrons    :      0.17s CPU      0.19s WALL (       1 calls)

     Called by init_run:
     wfcinit      :      0.01s CPU      0.01s WALL (       1 calls)
     potinit      :      0.00s CPU      0.00s WALL (       1 calls)
     hinit0       :      0.00s CPU      0.00s WALL (       1 calls)

     Called by electrons:
     c_bands      :      0.15s CPU      0.16s WALL (       6 calls)
     sum_band     :      0.02s CPU      0.03s WALL (       6 calls)
     v_of_rho     :      0.00s CPU      0.00s WALL (       6 calls)
     mix_rho      :      0.00s CPU      0.00s WALL (       6 calls)

     Called by c_bands:
     init_us_2    :      0.00s CPU      0.00s WALL (     364 calls)
     cegterg      :      0.15s CPU      0.16s WALL (     168 calls)

     Called by sum_band:

     Called by *egterg:
     h_psi        :      0.10s CPU      0.11s WALL (     502 calls)
     g_psi        :      0.00s CPU      0.00s WALL (     306 calls)
     cdiaghg      :      0.03s CPU      0.04s WALL (     446 calls)

     Called by h_psi:
     h_psi:pot    :      0.10s CPU      0.11s WALL (     502 calls)
     h_psi:calbec :      0.00s CPU      0.00s WALL (     502 calls)
     vloc_psi     :      0.09s CPU      0.10s WALL (     502 calls)
     add_vuspsi   :      0.00s CPU      0.00s WALL (     502 calls)

     General routines
     calbec       :      0.00s CPU      0.00s WALL (     502 calls)
     fft          :      0.00s CPU      0.00s WALL (      18 calls)
     ffts         :      0.00s CPU      0.00s WALL (       6 calls)
     fftw         :      0.10s CPU      0.11s WALL (    6178 calls)

     Parallel routines
     fft_scatt_xy :      0.01s CPU      0.02s WALL (    6202 calls)
     fft_scatt_yz :      0.02s CPU      0.03s WALL (    6202 calls)

     PWSCF        :      0.21s CPU      0.23s WALL


   This run was terminated on:  18:34:47  13Aug2019            

=------------------------------------------------------------------------------=
   JOB DONE.
=------------------------------------------------------------------------------=
