### Running on host: assam

     Program PWSCF v.6.4.1 starts on 13Aug2019 at 18:34:58 

     This program is part of the open-source Quantum ESPRESSO suite
     for quantum simulation of materials; please cite
         "P. Giannozzi et al., J. Phys.:Condens. Matter 21 395502 (2009);
         "P. Giannozzi et al., J. Phys.:Condens. Matter 29 465901 (2017);
          URL http://www.quantum-espresso.org", 
     in publications or presentations arising from this work. More details at
     http://www.quantum-espresso.org/quote

     Parallel version (MPI), running on     2 processors

     MPI processes distributed on     1 nodes
     R & G space division:  proc/nbgrp/npool/nimage =       2
     Reading input from scf.Al.mv-smearing.dg0.13.nk-8.in

     Current dimensions of program PWSCF are:
     Max number of different atomic species (ntypx) = 10
     Max number of k-points (npk) =  40000
     Max angular momentum in pseudopotentials (lmaxx) =  3

     Subspace diagonalization in iterative solution of the eigenvalue problem:
     a serial algorithm will be used


     Parallelization info
     --------------------
     sticks:   dense  smooth     PW     G-vecs:    dense   smooth      PW
     Min          45      45     18                  304      304      83
     Max          46      46     19                  305      305      86
     Sum          91      91     37                  609      609     169



     bravais-lattice index     =            2
     lattice parameter (alat)  =       7.5000  a.u.
     unit-cell volume          =     105.4688 (a.u.)^3
     number of atoms/cell      =            1
     number of atomic types    =            1
     number of electrons       =         3.00
     number of Kohn-Sham states=            6
     kinetic-energy cutoff     =      12.0000  Ry
     charge density cutoff     =      48.0000  Ry
     convergence threshold     =      1.0E-09
     mixing beta               =       0.7000
     number of iterations used =            8  plain     mixing
     Exchange-correlation      =  SLA  PZ   NOGX NOGC ( 1  1  0  0 0 0)

     celldm(1)=   7.500000  celldm(2)=   0.000000  celldm(3)=   0.000000
     celldm(4)=   0.000000  celldm(5)=   0.000000  celldm(6)=   0.000000

     crystal axes: (cart. coord. in units of alat)
               a(1) = (  -0.500000   0.000000   0.500000 )  
               a(2) = (   0.000000   0.500000   0.500000 )  
               a(3) = (  -0.500000   0.500000   0.000000 )  

     reciprocal axes: (cart. coord. in units 2 pi/alat)
               b(1) = ( -1.000000 -1.000000  1.000000 )  
               b(2) = (  1.000000  1.000000  1.000000 )  
               b(3) = ( -1.000000  1.000000 -1.000000 )  


     PseudoPot. # 1 for Al read from file:
     /home/matic/pw/pseudo/Al.pz-vbc.UPF
     MD5 check sum: 614279c88ff8d45c90147292d03ed420
     Pseudo is Norm-conserving, Zval =  3.0
     Generated by new atomic code, or converted to UPF format
     Using radial grid of  171 points,  2 beta functions with: 
                l(1) =   0
                l(2) =   1

     atomic species   valence    mass     pseudopotential
        Al             3.00    26.98100     Al( 1.00)

     48 Sym. Ops., with inversion, found



   Cartesian axes

     site n.     atom                  positions (alat units)
         1           Al  tau(   1) = (   0.0000000   0.0000000   0.0000000  )

     number of k points=    60  Marzari-Vanderbilt smearing, width (Ry)=  0.1300
                       cart. coord. in units 2pi/alat
        k(    1) = (  -0.0625000   0.0625000   0.0625000), wk =   0.0078125
        k(    2) = (  -0.1875000   0.1875000  -0.0625000), wk =   0.0234375
        k(    3) = (  -0.3125000   0.3125000  -0.1875000), wk =   0.0234375
        k(    4) = (  -0.4375000   0.4375000  -0.3125000), wk =   0.0234375
        k(    5) = (   0.4375000  -0.4375000   0.5625000), wk =   0.0234375
        k(    6) = (   0.3125000  -0.3125000   0.4375000), wk =   0.0234375
        k(    7) = (   0.1875000  -0.1875000   0.3125000), wk =   0.0234375
        k(    8) = (   0.0625000  -0.0625000   0.1875000), wk =   0.0234375
        k(    9) = (  -0.0625000   0.3125000   0.0625000), wk =   0.0234375
        k(   10) = (  -0.1875000   0.4375000  -0.0625000), wk =   0.0468750
        k(   11) = (  -0.3125000   0.5625000  -0.1875000), wk =   0.0468750
        k(   12) = (   0.5625000  -0.3125000   0.6875000), wk =   0.0468750
        k(   13) = (   0.4375000  -0.1875000   0.5625000), wk =   0.0468750
        k(   14) = (   0.3125000  -0.0625000   0.4375000), wk =   0.0468750
        k(   15) = (   0.1875000   0.0625000   0.3125000), wk =   0.0468750
        k(   16) = (  -0.0625000   0.5625000   0.0625000), wk =   0.0234375
        k(   17) = (  -0.1875000   0.6875000  -0.0625000), wk =   0.0468750
        k(   18) = (   0.6875000  -0.1875000   0.8125000), wk =   0.0468750
        k(   19) = (   0.5625000  -0.0625000   0.6875000), wk =   0.0468750
        k(   20) = (   0.4375000   0.0625000   0.5625000), wk =   0.0468750
        k(   21) = (   0.3125000   0.1875000   0.4375000), wk =   0.0468750
        k(   22) = (  -0.0625000   0.8125000   0.0625000), wk =   0.0234375
        k(   23) = (   0.8125000  -0.0625000   0.9375000), wk =   0.0468750
        k(   24) = (   0.6875000   0.0625000   0.8125000), wk =   0.0468750
        k(   25) = (   0.5625000   0.1875000   0.6875000), wk =   0.0468750
        k(   26) = (   0.4375000   0.3125000   0.5625000), wk =   0.0468750
        k(   27) = (  -0.0625000  -0.9375000   0.0625000), wk =   0.0234375
        k(   28) = (  -0.1875000  -0.8125000  -0.0625000), wk =   0.0468750
        k(   29) = (  -0.3125000  -0.6875000  -0.1875000), wk =   0.0468750
        k(   30) = (  -0.0625000  -0.6875000   0.0625000), wk =   0.0234375
        k(   31) = (  -0.1875000  -0.5625000  -0.0625000), wk =   0.0468750
        k(   32) = (  -0.0625000  -0.4375000   0.0625000), wk =   0.0234375
        k(   33) = (  -0.1875000   0.1875000   0.1875000), wk =   0.0078125
        k(   34) = (  -0.3125000   0.3125000   0.0625000), wk =   0.0234375
        k(   35) = (  -0.4375000   0.4375000  -0.0625000), wk =   0.0234375
        k(   36) = (   0.4375000  -0.4375000   0.8125000), wk =   0.0234375
        k(   37) = (   0.3125000  -0.3125000   0.6875000), wk =   0.0234375
        k(   38) = (   0.1875000  -0.1875000   0.5625000), wk =   0.0234375
        k(   39) = (  -0.1875000   0.4375000   0.1875000), wk =   0.0234375
        k(   40) = (  -0.3125000   0.5625000   0.0625000), wk =   0.0468750
        k(   41) = (   0.5625000  -0.3125000   0.9375000), wk =   0.0468750
        k(   42) = (   0.4375000  -0.1875000   0.8125000), wk =   0.0468750
        k(   43) = (   0.3125000  -0.0625000   0.6875000), wk =   0.0468750
        k(   44) = (  -0.1875000   0.6875000   0.1875000), wk =   0.0234375
        k(   45) = (   0.6875000  -0.1875000   1.0625000), wk =   0.0468750
        k(   46) = (   0.5625000  -0.0625000   0.9375000), wk =   0.0468750
        k(   47) = (   0.4375000   0.0625000   0.8125000), wk =   0.0468750
        k(   48) = (  -0.1875000  -1.0625000   0.1875000), wk =   0.0234375
        k(   49) = (  -0.3125000  -0.9375000   0.0625000), wk =   0.0468750
        k(   50) = (  -0.1875000  -0.8125000   0.1875000), wk =   0.0234375
        k(   51) = (  -0.3125000   0.3125000   0.3125000), wk =   0.0078125
        k(   52) = (  -0.4375000   0.4375000   0.1875000), wk =   0.0234375
        k(   53) = (   0.4375000  -0.4375000   1.0625000), wk =   0.0234375
        k(   54) = (   0.3125000  -0.3125000   0.9375000), wk =   0.0234375
        k(   55) = (  -0.3125000   0.5625000   0.3125000), wk =   0.0234375
        k(   56) = (   0.5625000  -0.3125000   1.1875000), wk =   0.0468750
        k(   57) = (   0.4375000  -0.1875000   1.0625000), wk =   0.0468750
        k(   58) = (  -0.3125000  -1.1875000   0.3125000), wk =   0.0234375
        k(   59) = (  -0.4375000   0.4375000   0.4375000), wk =   0.0078125
        k(   60) = (   0.4375000  -0.4375000   1.3125000), wk =   0.0234375

     Dense  grid:      609 G-vectors     FFT dimensions: (  12,  12,  12)

     Estimated max dynamical RAM per process >       0.51 MB

     Estimated total dynamical RAM >       1.01 MB

     Initial potential from superposition of free atoms

     starting charge    2.99794, renormalised to    3.00000
     Starting wfcs are    4 randomized atomic wfcs +    2 random wfcs

     total cpu time spent up to now is        0.0 secs

     Self-consistent Calculation

     iteration #  1     ecut=    12.00 Ry     beta= 0.70
     Davidson diagonalization with overlap
     ethr =  1.00E-02,  avg # of iterations =  4.2

     Threshold (ethr) on eigenvalues was too large:
     Diagonalizing with lowered threshold

     Davidson diagonalization with overlap
     ethr =  2.03E-04,  avg # of iterations =  1.1

     total cpu time spent up to now is        0.2 secs

     total energy              =      -4.18422847 Ry
     Harris-Foulkes estimate   =      -4.18505319 Ry
     estimated scf accuracy    <       0.00608726 Ry

     iteration #  2     ecut=    12.00 Ry     beta= 0.70
     Davidson diagonalization with overlap
     ethr =  2.03E-04,  avg # of iterations =  1.0

     total cpu time spent up to now is        0.3 secs

     total energy              =      -4.18422035 Ry
     Harris-Foulkes estimate   =      -4.18425318 Ry
     estimated scf accuracy    <       0.00047453 Ry

     iteration #  3     ecut=    12.00 Ry     beta= 0.70
     Davidson diagonalization with overlap
     ethr =  1.58E-05,  avg # of iterations =  1.2

     total cpu time spent up to now is        0.3 secs

     total energy              =      -4.18422310 Ry
     Harris-Foulkes estimate   =      -4.18422304 Ry
     estimated scf accuracy    <       0.00000031 Ry

     iteration #  4     ecut=    12.00 Ry     beta= 0.70
     Davidson diagonalization with overlap
     ethr =  1.05E-08,  avg # of iterations =  1.9

     total cpu time spent up to now is        0.4 secs

     total energy              =      -4.18422312 Ry
     Harris-Foulkes estimate   =      -4.18422312 Ry
     estimated scf accuracy    <          3.2E-09 Ry

     iteration #  5     ecut=    12.00 Ry     beta= 0.70
     Davidson diagonalization with overlap
     ethr =  1.07E-10,  avg # of iterations =  1.5

     total cpu time spent up to now is        0.4 secs

     End of self-consistent calculation

          k =-0.0625 0.0625 0.0625 (    65 PWs)   bands (ev):

    -3.0491  19.3457  20.8144  20.8144  23.1675  23.1676

          k =-0.1875 0.1875-0.0625 (    65 PWs)   bands (ev):

    -2.4554  15.9292  18.1748  21.3506  23.3907  23.8188

          k =-0.3125 0.3125-0.1875 (    72 PWs)   bands (ev):

    -0.9969  11.1124  17.4199  20.7333  21.8010  23.3113

          k =-0.4375 0.4375-0.3125 (    73 PWs)   bands (ev):

     1.3005   6.8548  17.4323  19.7883  20.8126  21.3886

          k = 0.4375-0.4375 0.5625 (    74 PWs)   bands (ev):

     3.2598   4.4035  18.1902  18.5584  20.1086  21.5563

          k = 0.3125-0.3125 0.4375 (    74 PWs)   bands (ev):

     0.4432   8.2009  18.0537  19.5376  19.7274  23.0358

          k = 0.1875-0.1875 0.3125 (    69 PWs)   bands (ev):

    -1.5771  12.6772  18.2792  19.7344  21.9203  24.1757

          k = 0.0625-0.0625 0.1875 (    64 PWs)   bands (ev):

    -2.7509  17.6582  19.2210  20.3223  22.5012  24.5217

          k =-0.0625 0.3125 0.0625 (    68 PWs)   bands (ev):

    -2.1649  16.1213  17.7741  18.9560  21.4661  21.8442

          k =-0.1875 0.4375-0.0625 (    73 PWs)   bands (ev):

    -0.9985  13.0563  15.5390  18.6283  19.6030  22.3540

          k =-0.3125 0.5625-0.1875 (    73 PWs)   bands (ev):

     1.0149   8.7147  15.1862  16.3669  19.6637  24.4699

          k = 0.5625-0.3125 0.6875 (    76 PWs)   bands (ev):

     3.8076   4.9516  14.7079  15.8026  20.2421  23.0638

          k = 0.4375-0.1875 0.5625 (    75 PWs)   bands (ev):

     1.8643   7.3726  13.9924  17.0356  21.4948  22.3311

          k = 0.3125-0.0625 0.4375 (    74 PWs)   bands (ev):

    -0.4205  11.4827  14.1301  19.0471  22.0266  23.4569

          k = 0.1875 0.0625 0.3125 (    68 PWs)   bands (ev):

    -1.8701  14.3744  16.7775  20.7449  21.7238  23.3366

          k =-0.0625 0.5625 0.0625 (    76 PWs)   bands (ev):

    -0.1348  13.7505  15.2569  15.5966  16.6381  19.8230

          k =-0.1875 0.6875-0.0625 (    77 PWs)   bands (ev):

     1.5765  11.1819  12.6067  13.8902  17.8147  20.8652

          k = 0.6875-0.1875 0.8125 (    75 PWs)   bands (ev):

     4.0802   7.3580  10.8380  14.0118  18.4399  24.5986

          k = 0.5625-0.0625 0.6875 (    73 PWs)   bands (ev):

     4.0948   7.2389   9.9396  15.0165  19.5720  26.2141

          k = 0.4375 0.0625 0.5625 (    75 PWs)   bands (ev):

     1.5795   9.0970  11.8116  16.7886  21.3480  23.9155

          k = 0.3125 0.1875 0.4375 (    72 PWs)   bands (ev):

    -0.1291   9.7870  16.2218  19.2793  20.4892  23.6060

          k =-0.0625 0.8125 0.0625 (    76 PWs)   bands (ev):

     2.9739   9.7195  12.4446  14.3964  15.2871  18.6555

          k = 0.8125-0.0625 0.9375 (    74 PWs)   bands (ev):

     5.0867   7.6655  10.4348  13.0750  17.0287  20.2000

          k = 0.6875 0.0625 0.8125 (    74 PWs)   bands (ev):

     5.8760   7.0565   8.6038  13.7494  18.1862  24.4166

          k = 0.5625 0.1875 0.6875 (    78 PWs)   bands (ev):

     4.3543   5.4843  12.1646  15.2683  19.7970  24.5323

          k = 0.4375 0.3125 0.5625 (    73 PWs)   bands (ev):

     2.4282   5.7670  16.4575  17.5299  20.7845  21.8889

          k =-0.0625-0.9375 0.0625 (    72 PWs)   bands (ev):

     4.8204   7.4036  12.1778  14.1595  15.0185  18.4422

          k =-0.1875-0.8125-0.0625 (    77 PWs)   bands (ev):

     3.2502   9.9298  10.7370  13.3378  17.2909  20.4102

          k =-0.3125-0.6875-0.1875 (    74 PWs)   bands (ev):

     2.4261   7.9042  13.4014  14.5671  18.9473  24.8881

          k =-0.0625-0.6875 0.0625 (    76 PWs)   bands (ev):

     1.2931  12.3366  13.0045  14.8752  15.8274  19.1330

          k =-0.1875-0.5625-0.0625 (    76 PWs)   bands (ev):

     0.1540  11.9941  14.4800  15.6267  18.5931  21.5242

          k =-0.0625-0.4375 0.0625 (    76 PWs)   bands (ev):

    -1.2931  14.8124  16.5625  17.6411  18.3960  20.6801

          k =-0.1875 0.1875 0.1875 (    65 PWs)   bands (ev):

    -2.1599  14.2331  19.7349  19.7349  23.1336  24.4700

          k =-0.3125 0.3125 0.0625 (    71 PWs)   bands (ev):

    -1.2883  12.8050  15.3843  21.4334  22.5084  23.5133

          k =-0.4375 0.4375-0.0625 (    73 PWs)   bands (ev):

     0.4429  10.1617  12.8658  19.0453  21.1327  24.0622

          k = 0.4375-0.4375 0.8125 (    77 PWs)   bands (ev):

     2.9834   6.2895  12.9667  17.3217  19.2972  24.3381

          k = 0.3125-0.3125 0.6875 (    77 PWs)   bands (ev):

     2.9827   6.3037  13.9777  16.3385  18.1802  25.3228

          k = 0.1875-0.1875 0.5625 (    75 PWs)   bands (ev):

     0.4428  10.2883  15.7728  16.0874  17.8127  23.3940

          k =-0.1875 0.4375 0.1875 (    71 PWs)   bands (ev):

    -0.7057  11.3578  17.0602  18.6200  18.9849  24.1939

          k =-0.3125 0.5625 0.0625 (    75 PWs)   bands (ev):

     0.7268  10.4209  13.0841  16.1086  21.1409  23.5302

          k = 0.5625-0.3125 0.9375 (    75 PWs)   bands (ev):

     2.9842   8.2990  10.9875  14.0702  22.4225  23.3272

          k = 0.4375-0.1875 0.8125 (    74 PWs)   bands (ev):

     4.8898   6.0351  11.5483  12.8596  21.1806  24.2035

          k = 0.3125-0.0625 0.6875 (    76 PWs)   bands (ev):

     2.1412   9.6193  12.1883  13.3915  20.4038  23.0631

          k =-0.1875 0.6875 0.1875 (    77 PWs)   bands (ev):

     1.8600   9.4802  12.9315  15.3617  17.0079  22.7512

          k = 0.6875-0.1875 1.0625 (    76 PWs)   bands (ev):

     3.8067   9.0684  10.4718  11.9765  19.8943  22.6804

          k = 0.5625-0.0625 0.9375 (    75 PWs)   bands (ev):

     6.4068   7.4791   8.9598  10.4655  22.5046  24.7206

          k = 0.4375 0.0625 0.8125 (    73 PWs)   bands (ev):

     4.6316   7.7657  10.3212  11.6159  22.7237  23.8733

          k =-0.1875-1.0625 0.1875 (    74 PWs)   bands (ev):

     5.3508   7.8646   8.8217  14.6419  16.1930  22.0962

          k =-0.3125-0.9375 0.0625 (    75 PWs)   bands (ev):

     5.6186   8.1373   8.9158  11.6451  19.6378  22.4770

          k =-0.1875-0.8125 0.1875 (    76 PWs)   bands (ev):

     3.5299   8.9097  10.3402  14.8802  16.4637  22.3132

          k =-0.3125 0.3125 0.3125 (    74 PWs)   bands (ev):

    -0.4193   9.5377  19.2837  19.2837  22.2760  22.2760

          k =-0.4375 0.4375 0.1875 (    74 PWs)   bands (ev):

     0.7287   8.4513  15.0187  19.2930  21.2830  22.3163

          k = 0.4375-0.4375 1.0625 (    75 PWs)   bands (ev):

     2.7068   8.0340  10.7532  17.0780  19.0757  26.1239

          k = 0.3125-0.3125 0.9375 (    74 PWs)   bands (ev):

     5.4446   6.4511   9.1275  15.6147  17.4153  26.6829

          k =-0.3125 0.5625 0.3125 (    73 PWs)   bands (ev):

     1.5837   7.1214  16.7846  17.0719  18.8937  24.0578

          k = 0.5625-0.3125 1.1875 (    76 PWs)   bands (ev):

     3.2616   6.5614  13.1395  14.3694  21.5954  22.8017

          k = 0.4375-0.1875 1.0625 (    75 PWs)   bands (ev):

     5.7019   6.7161   9.3667  12.5342  20.9502  25.7478

          k =-0.3125-1.1875 0.3125 (    74 PWs)   bands (ev):

     4.6165   5.7752  11.3827  15.8552  17.6801  26.7814

          k =-0.4375 0.4375 0.4375 (    73 PWs)   bands (ev):

     2.1478   5.4963  19.5505  19.5505  20.5509  20.5509

          k = 0.4375-0.4375 1.3125 (    75 PWs)   bands (ev):

     3.5352   4.6774  15.5123  17.8145  19.7128  22.8239

     the Fermi energy is     8.3020 ev

!    total energy              =      -4.18422312 Ry
     Harris-Foulkes estimate   =      -4.18422312 Ry
     estimated scf accuracy    <          1.2E-11 Ry

     The total energy is the sum of the following terms:

     one-electron contribution =       2.94447631 Ry
     hartree contribution      =       0.00997782 Ry
     xc contribution           =      -1.63460232 Ry
     ewald contribution        =      -5.50183452 Ry
     smearing contrib. (-TS)   =      -0.00224041 Ry

     convergence has been achieved in   5 iterations

     Writing output data file pwscf.save/

     init_run     :      0.03s CPU      0.03s WALL (       1 calls)
     electrons    :      0.35s CPU      0.41s WALL (       1 calls)

     Called by init_run:
     wfcinit      :      0.02s CPU      0.02s WALL (       1 calls)
     potinit      :      0.00s CPU      0.00s WALL (       1 calls)
     hinit0       :      0.00s CPU      0.00s WALL (       1 calls)

     Called by electrons:
     c_bands      :      0.31s CPU      0.35s WALL (       6 calls)
     sum_band     :      0.04s CPU      0.05s WALL (       6 calls)
     v_of_rho     :      0.00s CPU      0.00s WALL (       6 calls)
     mix_rho      :      0.00s CPU      0.00s WALL (       6 calls)

     Called by c_bands:
     init_us_2    :      0.01s CPU      0.01s WALL (     780 calls)
     cegterg      :      0.30s CPU      0.34s WALL (     360 calls)

     Called by sum_band:

     Called by *egterg:
     h_psi        :      0.21s CPU      0.23s WALL (    1082 calls)
     g_psi        :      0.00s CPU      0.00s WALL (     662 calls)
     cdiaghg      :      0.07s CPU      0.08s WALL (     962 calls)

     Called by h_psi:
     h_psi:pot    :      0.20s CPU      0.23s WALL (    1082 calls)
     h_psi:calbec :      0.01s CPU      0.01s WALL (    1082 calls)
     vloc_psi     :      0.19s CPU      0.22s WALL (    1082 calls)
     add_vuspsi   :      0.00s CPU      0.00s WALL (    1082 calls)

     General routines
     calbec       :      0.00s CPU      0.01s WALL (    1082 calls)
     fft          :      0.00s CPU      0.00s WALL (      18 calls)
     ffts         :      0.00s CPU      0.00s WALL (       6 calls)
     fftw         :      0.20s CPU      0.23s WALL (   13254 calls)

     Parallel routines
     fft_scatt_xy :      0.03s CPU      0.03s WALL (   13278 calls)
     fft_scatt_yz :      0.04s CPU      0.05s WALL (   13278 calls)

     PWSCF        :      0.40s CPU      0.46s WALL


   This run was terminated on:  18:34:59  13Aug2019            

=------------------------------------------------------------------------------=
   JOB DONE.
=------------------------------------------------------------------------------=
