### Running on host: assam

     Program PWSCF v.6.4.1 starts on 13Aug2019 at 18:34:48 

     This program is part of the open-source Quantum ESPRESSO suite
     for quantum simulation of materials; please cite
         "P. Giannozzi et al., J. Phys.:Condens. Matter 21 395502 (2009);
         "P. Giannozzi et al., J. Phys.:Condens. Matter 29 465901 (2017);
          URL http://www.quantum-espresso.org", 
     in publications or presentations arising from this work. More details at
     http://www.quantum-espresso.org/quote

     Parallel version (MPI), running on     2 processors

     MPI processes distributed on     1 nodes
     R & G space division:  proc/nbgrp/npool/nimage =       2
     Reading input from scf.Al.mv-smearing.dg0.14.nk-6.in

     Current dimensions of program PWSCF are:
     Max number of different atomic species (ntypx) = 10
     Max number of k-points (npk) =  40000
     Max angular momentum in pseudopotentials (lmaxx) =  3

     Subspace diagonalization in iterative solution of the eigenvalue problem:
     a serial algorithm will be used


     Parallelization info
     --------------------
     sticks:   dense  smooth     PW     G-vecs:    dense   smooth      PW
     Min          45      45     18                  304      304      83
     Max          46      46     19                  305      305      86
     Sum          91      91     37                  609      609     169



     bravais-lattice index     =            2
     lattice parameter (alat)  =       7.5000  a.u.
     unit-cell volume          =     105.4688 (a.u.)^3
     number of atoms/cell      =            1
     number of atomic types    =            1
     number of electrons       =         3.00
     number of Kohn-Sham states=            6
     kinetic-energy cutoff     =      12.0000  Ry
     charge density cutoff     =      48.0000  Ry
     convergence threshold     =      1.0E-09
     mixing beta               =       0.7000
     number of iterations used =            8  plain     mixing
     Exchange-correlation      =  SLA  PZ   NOGX NOGC ( 1  1  0  0 0 0)

     celldm(1)=   7.500000  celldm(2)=   0.000000  celldm(3)=   0.000000
     celldm(4)=   0.000000  celldm(5)=   0.000000  celldm(6)=   0.000000

     crystal axes: (cart. coord. in units of alat)
               a(1) = (  -0.500000   0.000000   0.500000 )  
               a(2) = (   0.000000   0.500000   0.500000 )  
               a(3) = (  -0.500000   0.500000   0.000000 )  

     reciprocal axes: (cart. coord. in units 2 pi/alat)
               b(1) = ( -1.000000 -1.000000  1.000000 )  
               b(2) = (  1.000000  1.000000  1.000000 )  
               b(3) = ( -1.000000  1.000000 -1.000000 )  


     PseudoPot. # 1 for Al read from file:
     /home/matic/pw/pseudo/Al.pz-vbc.UPF
     MD5 check sum: 614279c88ff8d45c90147292d03ed420
     Pseudo is Norm-conserving, Zval =  3.0
     Generated by new atomic code, or converted to UPF format
     Using radial grid of  171 points,  2 beta functions with: 
                l(1) =   0
                l(2) =   1

     atomic species   valence    mass     pseudopotential
        Al             3.00    26.98100     Al( 1.00)

     48 Sym. Ops., with inversion, found



   Cartesian axes

     site n.     atom                  positions (alat units)
         1           Al  tau(   1) = (   0.0000000   0.0000000   0.0000000  )

     number of k points=    28  Marzari-Vanderbilt smearing, width (Ry)=  0.1400
                       cart. coord. in units 2pi/alat
        k(    1) = (  -0.0833333   0.0833333   0.0833333), wk =   0.0185185
        k(    2) = (  -0.2500000   0.2500000  -0.0833333), wk =   0.0555556
        k(    3) = (  -0.4166667   0.4166667  -0.2500000), wk =   0.0555556
        k(    4) = (   0.4166667  -0.4166667   0.5833333), wk =   0.0555556
        k(    5) = (   0.2500000  -0.2500000   0.4166667), wk =   0.0555556
        k(    6) = (   0.0833333  -0.0833333   0.2500000), wk =   0.0555556
        k(    7) = (  -0.0833333   0.4166667   0.0833333), wk =   0.0555556
        k(    8) = (  -0.2500000   0.5833333  -0.0833333), wk =   0.1111111
        k(    9) = (   0.5833333  -0.2500000   0.7500000), wk =   0.1111111
        k(   10) = (   0.4166667  -0.0833333   0.5833333), wk =   0.1111111
        k(   11) = (   0.2500000   0.0833333   0.4166667), wk =   0.1111111
        k(   12) = (  -0.0833333   0.7500000   0.0833333), wk =   0.0555556
        k(   13) = (   0.7500000  -0.0833333   0.9166667), wk =   0.1111111
        k(   14) = (   0.5833333   0.0833333   0.7500000), wk =   0.1111111
        k(   15) = (   0.4166667   0.2500000   0.5833333), wk =   0.1111111
        k(   16) = (  -0.0833333  -0.9166667   0.0833333), wk =   0.0555556
        k(   17) = (  -0.2500000  -0.7500000  -0.0833333), wk =   0.1111111
        k(   18) = (  -0.0833333  -0.5833333   0.0833333), wk =   0.0555556
        k(   19) = (  -0.2500000   0.2500000   0.2500000), wk =   0.0185185
        k(   20) = (  -0.4166667   0.4166667   0.0833333), wk =   0.0555556
        k(   21) = (   0.4166667  -0.4166667   0.9166667), wk =   0.0555556
        k(   22) = (   0.2500000  -0.2500000   0.7500000), wk =   0.0555556
        k(   23) = (  -0.2500000   0.5833333   0.2500000), wk =   0.0555556
        k(   24) = (   0.5833333  -0.2500000   1.0833333), wk =   0.1111111
        k(   25) = (   0.4166667  -0.0833333   0.9166667), wk =   0.1111111
        k(   26) = (  -0.2500000  -1.0833333   0.2500000), wk =   0.0555556
        k(   27) = (  -0.4166667   0.4166667   0.4166667), wk =   0.0185185
        k(   28) = (   0.4166667  -0.4166667   1.2500000), wk =   0.0555556

     Dense  grid:      609 G-vectors     FFT dimensions: (  12,  12,  12)

     Estimated max dynamical RAM per process >       0.40 MB

     Estimated total dynamical RAM >       0.79 MB

     Initial potential from superposition of free atoms

     starting charge    2.99794, renormalised to    3.00000
     Starting wfcs are    4 randomized atomic wfcs +    2 random wfcs

     total cpu time spent up to now is        0.0 secs

     Self-consistent Calculation

     iteration #  1     ecut=    12.00 Ry     beta= 0.70
     Davidson diagonalization with overlap
     ethr =  1.00E-02,  avg # of iterations =  4.0

     Threshold (ethr) on eigenvalues was too large:
     Diagonalizing with lowered threshold

     Davidson diagonalization with overlap
     ethr =  2.03E-04,  avg # of iterations =  1.2

     total cpu time spent up to now is        0.1 secs

     total energy              =      -4.18440098 Ry
     Harris-Foulkes estimate   =      -4.18522445 Ry
     estimated scf accuracy    <       0.00607324 Ry

     iteration #  2     ecut=    12.00 Ry     beta= 0.70
     Davidson diagonalization with overlap
     ethr =  2.02E-04,  avg # of iterations =  1.0

     total cpu time spent up to now is        0.1 secs

     total energy              =      -4.18439302 Ry
     Harris-Foulkes estimate   =      -4.18442567 Ry
     estimated scf accuracy    <       0.00047341 Ry

     iteration #  3     ecut=    12.00 Ry     beta= 0.70
     Davidson diagonalization with overlap
     ethr =  1.58E-05,  avg # of iterations =  1.4

     total cpu time spent up to now is        0.2 secs

     total energy              =      -4.18439577 Ry
     Harris-Foulkes estimate   =      -4.18439571 Ry
     estimated scf accuracy    <       0.00000031 Ry

     iteration #  4     ecut=    12.00 Ry     beta= 0.70
     Davidson diagonalization with overlap
     ethr =  1.04E-08,  avg # of iterations =  1.9

     total cpu time spent up to now is        0.2 secs

     total energy              =      -4.18439579 Ry
     Harris-Foulkes estimate   =      -4.18439579 Ry
     estimated scf accuracy    <          3.0E-09 Ry

     iteration #  5     ecut=    12.00 Ry     beta= 0.70
     Davidson diagonalization with overlap
     ethr =  9.99E-11,  avg # of iterations =  1.4

     total cpu time spent up to now is        0.2 secs

     End of self-consistent calculation

          k =-0.0833 0.0833 0.0833 (    65 PWs)   bands (ev):

    -2.9627  18.4942  20.6067  20.6067  23.3325  23.5030

          k =-0.2500 0.2500-0.0833 (    67 PWs)   bands (ev):

    -1.9144  14.0413  17.0594  21.5243  22.8699  24.0759

          k =-0.4167 0.4167-0.2500 (    74 PWs)   bands (ev):

     0.6537   8.0367  16.5830  19.8829  21.2486  21.6875

          k = 0.4167-0.4167 0.5833 (    74 PWs)   bands (ev):

     3.1578   4.6645  17.4835  18.1349  19.8509  22.1325

          k = 0.2500-0.2500 0.4167 (    71 PWs)   bands (ev):

    -0.3648   9.9347  17.6824  19.2935  19.7616  24.3078

          k = 0.0833-0.0833 0.2500 (    66 PWs)   bands (ev):

    -2.4370  16.2854  18.5197  19.8444  22.4254  23.5001

          k =-0.0833 0.4167 0.0833 (    72 PWs)   bands (ev):

    -1.3994  14.4330  16.7958  18.1070  18.9833  21.2871

          k =-0.2500 0.5833-0.0833 (    75 PWs)   bands (ev):

     0.6517  10.7545  13.9219  15.3921  19.4753  22.7234

          k = 0.5833-0.2500 0.7500 (    74 PWs)   bands (ev):

     4.1328   5.6355  12.9455  14.4541  20.1884  24.1017

          k = 0.4167-0.0833 0.5833 (    74 PWs)   bands (ev):

     1.6640   8.8753  12.1758  16.2312  21.9922  23.1176

          k = 0.2500 0.0833 0.4167 (    72 PWs)   bands (ev):

    -0.8812  12.1721  15.3268  19.3596  20.7456  23.7159

          k =-0.0833 0.7500 0.0833 (    77 PWs)   bands (ev):

     2.1593  11.0365  12.1256  14.6526  15.7808  19.3134

          k = 0.7500-0.0833 0.9167 (    76 PWs)   bands (ev):

     5.0465   8.2358   9.4084  12.6737  18.1074  21.5839

          k = 0.5833 0.0833 0.7500 (    75 PWs)   bands (ev):

     5.1039   6.5116   9.7987  13.9612  19.7700  26.1776

          k = 0.4167 0.2500 0.5833 (    75 PWs)   bands (ev):

     2.1653   6.5934  15.2377  16.6803  20.9319  22.3994

          k =-0.0833-0.9167 0.0833 (    74 PWs)   bands (ev):

     4.5691   7.8006  11.6330  14.2292  15.2952  18.9112

          k =-0.2500-0.7500-0.0833 (    77 PWs)   bands (ev):

     2.6569   9.7879  11.5282  13.1798  18.5686  21.9667

          k =-0.0833-0.5833 0.0833 (    76 PWs)   bands (ev):

     0.1406  13.0169  14.8192  15.5071  16.7545  20.1329

          k =-0.2500 0.2500 0.2500 (    68 PWs)   bands (ev):

    -1.3946  11.8139  19.4223  19.4223  23.0016  23.3871

          k =-0.4167 0.4167 0.0833 (    73 PWs)   bands (ev):

     0.1442  10.2968  13.5724  19.4439  21.5253  23.4647

          k = 0.4167-0.4167 0.9167 (    75 PWs)   bands (ev):

     3.1592   7.4522  10.7724  16.8223  18.7940  26.1992

          k = 0.2500-0.2500 0.7500 (    74 PWs)   bands (ev):

     3.1571   7.5382  12.0569  15.5171  17.2644  24.7350

          k =-0.2500 0.5833 0.2500 (    75 PWs)   bands (ev):

     1.1593   8.5011  15.7351  16.3795  18.1775  25.3727

          k = 0.5833-0.2500 1.0833 (    76 PWs)   bands (ev):

     3.6483   7.9209  11.1432  12.6891  22.2003  23.6908

          k = 0.4167-0.0833 0.9167 (    75 PWs)   bands (ev):

     5.9926   7.4309   9.2243  10.9578  21.7934  24.6758

          k =-0.2500-1.0833 0.2500 (    74 PWs)   bands (ev):

     5.5167   7.0348   8.8682  15.0899  16.7818  24.3817

          k =-0.4167 0.4167 0.4167 (    73 PWs)   bands (ev):

     1.6662   6.1213  19.4557  19.4557  20.7882  20.7882

          k = 0.4167-0.4167 1.2500 (    79 PWs)   bands (ev):

     3.6456   5.1423  13.9159  17.2561  19.1886  23.9265

     the Fermi energy is     8.3044 ev

!    total energy              =      -4.18439579 Ry
     Harris-Foulkes estimate   =      -4.18439579 Ry
     estimated scf accuracy    <          1.2E-11 Ry

     The total energy is the sum of the following terms:

     one-electron contribution =       2.94515349 Ry
     hartree contribution      =       0.00996649 Ry
     xc contribution           =      -1.63460199 Ry
     ewald contribution        =      -5.50183452 Ry
     smearing contrib. (-TS)   =      -0.00307926 Ry

     convergence has been achieved in   5 iterations

     Writing output data file pwscf.save/

     init_run     :      0.01s CPU      0.01s WALL (       1 calls)
     electrons    :      0.16s CPU      0.19s WALL (       1 calls)

     Called by init_run:
     wfcinit      :      0.01s CPU      0.01s WALL (       1 calls)
     potinit      :      0.00s CPU      0.00s WALL (       1 calls)
     hinit0       :      0.00s CPU      0.00s WALL (       1 calls)

     Called by electrons:
     c_bands      :      0.14s CPU      0.16s WALL (       6 calls)
     sum_band     :      0.02s CPU      0.03s WALL (       6 calls)
     v_of_rho     :      0.00s CPU      0.00s WALL (       6 calls)
     mix_rho      :      0.00s CPU      0.00s WALL (       6 calls)

     Called by c_bands:
     init_us_2    :      0.00s CPU      0.00s WALL (     364 calls)
     cegterg      :      0.13s CPU      0.16s WALL (     168 calls)

     Called by sum_band:

     Called by *egterg:
     h_psi        :      0.09s CPU      0.11s WALL (     502 calls)
     g_psi        :      0.00s CPU      0.00s WALL (     306 calls)
     cdiaghg      :      0.03s CPU      0.04s WALL (     446 calls)

     Called by h_psi:
     h_psi:pot    :      0.09s CPU      0.11s WALL (     502 calls)
     h_psi:calbec :      0.00s CPU      0.00s WALL (     502 calls)
     vloc_psi     :      0.08s CPU      0.10s WALL (     502 calls)
     add_vuspsi   :      0.00s CPU      0.00s WALL (     502 calls)

     General routines
     calbec       :      0.00s CPU      0.00s WALL (     502 calls)
     fft          :      0.00s CPU      0.00s WALL (      18 calls)
     ffts         :      0.00s CPU      0.00s WALL (       6 calls)
     fftw         :      0.09s CPU      0.11s WALL (    6178 calls)

     Parallel routines
     fft_scatt_xy :      0.01s CPU      0.02s WALL (    6202 calls)
     fft_scatt_yz :      0.02s CPU      0.02s WALL (    6202 calls)

     PWSCF        :      0.19s CPU      0.23s WALL


   This run was terminated on:  18:34:48  13Aug2019            

=------------------------------------------------------------------------------=
   JOB DONE.
=------------------------------------------------------------------------------=
