### Running on host: assam

     Program PWSCF v.6.4.1 starts on 13Aug2019 at 18:34:52 

     This program is part of the open-source Quantum ESPRESSO suite
     for quantum simulation of materials; please cite
         "P. Giannozzi et al., J. Phys.:Condens. Matter 21 395502 (2009);
         "P. Giannozzi et al., J. Phys.:Condens. Matter 29 465901 (2017);
          URL http://www.quantum-espresso.org", 
     in publications or presentations arising from this work. More details at
     http://www.quantum-espresso.org/quote

     Parallel version (MPI), running on     2 processors

     MPI processes distributed on     1 nodes
     R & G space division:  proc/nbgrp/npool/nimage =       2
     Reading input from scf.Al.mv-smearing.dg0.08.nk-8.in

     Current dimensions of program PWSCF are:
     Max number of different atomic species (ntypx) = 10
     Max number of k-points (npk) =  40000
     Max angular momentum in pseudopotentials (lmaxx) =  3

     Subspace diagonalization in iterative solution of the eigenvalue problem:
     a serial algorithm will be used


     Parallelization info
     --------------------
     sticks:   dense  smooth     PW     G-vecs:    dense   smooth      PW
     Min          45      45     18                  304      304      83
     Max          46      46     19                  305      305      86
     Sum          91      91     37                  609      609     169



     bravais-lattice index     =            2
     lattice parameter (alat)  =       7.5000  a.u.
     unit-cell volume          =     105.4688 (a.u.)^3
     number of atoms/cell      =            1
     number of atomic types    =            1
     number of electrons       =         3.00
     number of Kohn-Sham states=            6
     kinetic-energy cutoff     =      12.0000  Ry
     charge density cutoff     =      48.0000  Ry
     convergence threshold     =      1.0E-09
     mixing beta               =       0.7000
     number of iterations used =            8  plain     mixing
     Exchange-correlation      =  SLA  PZ   NOGX NOGC ( 1  1  0  0 0 0)

     celldm(1)=   7.500000  celldm(2)=   0.000000  celldm(3)=   0.000000
     celldm(4)=   0.000000  celldm(5)=   0.000000  celldm(6)=   0.000000

     crystal axes: (cart. coord. in units of alat)
               a(1) = (  -0.500000   0.000000   0.500000 )  
               a(2) = (   0.000000   0.500000   0.500000 )  
               a(3) = (  -0.500000   0.500000   0.000000 )  

     reciprocal axes: (cart. coord. in units 2 pi/alat)
               b(1) = ( -1.000000 -1.000000  1.000000 )  
               b(2) = (  1.000000  1.000000  1.000000 )  
               b(3) = ( -1.000000  1.000000 -1.000000 )  


     PseudoPot. # 1 for Al read from file:
     /home/matic/pw/pseudo/Al.pz-vbc.UPF
     MD5 check sum: 614279c88ff8d45c90147292d03ed420
     Pseudo is Norm-conserving, Zval =  3.0
     Generated by new atomic code, or converted to UPF format
     Using radial grid of  171 points,  2 beta functions with: 
                l(1) =   0
                l(2) =   1

     atomic species   valence    mass     pseudopotential
        Al             3.00    26.98100     Al( 1.00)

     48 Sym. Ops., with inversion, found



   Cartesian axes

     site n.     atom                  positions (alat units)
         1           Al  tau(   1) = (   0.0000000   0.0000000   0.0000000  )

     number of k points=    60  Marzari-Vanderbilt smearing, width (Ry)=  0.0800
                       cart. coord. in units 2pi/alat
        k(    1) = (  -0.0625000   0.0625000   0.0625000), wk =   0.0078125
        k(    2) = (  -0.1875000   0.1875000  -0.0625000), wk =   0.0234375
        k(    3) = (  -0.3125000   0.3125000  -0.1875000), wk =   0.0234375
        k(    4) = (  -0.4375000   0.4375000  -0.3125000), wk =   0.0234375
        k(    5) = (   0.4375000  -0.4375000   0.5625000), wk =   0.0234375
        k(    6) = (   0.3125000  -0.3125000   0.4375000), wk =   0.0234375
        k(    7) = (   0.1875000  -0.1875000   0.3125000), wk =   0.0234375
        k(    8) = (   0.0625000  -0.0625000   0.1875000), wk =   0.0234375
        k(    9) = (  -0.0625000   0.3125000   0.0625000), wk =   0.0234375
        k(   10) = (  -0.1875000   0.4375000  -0.0625000), wk =   0.0468750
        k(   11) = (  -0.3125000   0.5625000  -0.1875000), wk =   0.0468750
        k(   12) = (   0.5625000  -0.3125000   0.6875000), wk =   0.0468750
        k(   13) = (   0.4375000  -0.1875000   0.5625000), wk =   0.0468750
        k(   14) = (   0.3125000  -0.0625000   0.4375000), wk =   0.0468750
        k(   15) = (   0.1875000   0.0625000   0.3125000), wk =   0.0468750
        k(   16) = (  -0.0625000   0.5625000   0.0625000), wk =   0.0234375
        k(   17) = (  -0.1875000   0.6875000  -0.0625000), wk =   0.0468750
        k(   18) = (   0.6875000  -0.1875000   0.8125000), wk =   0.0468750
        k(   19) = (   0.5625000  -0.0625000   0.6875000), wk =   0.0468750
        k(   20) = (   0.4375000   0.0625000   0.5625000), wk =   0.0468750
        k(   21) = (   0.3125000   0.1875000   0.4375000), wk =   0.0468750
        k(   22) = (  -0.0625000   0.8125000   0.0625000), wk =   0.0234375
        k(   23) = (   0.8125000  -0.0625000   0.9375000), wk =   0.0468750
        k(   24) = (   0.6875000   0.0625000   0.8125000), wk =   0.0468750
        k(   25) = (   0.5625000   0.1875000   0.6875000), wk =   0.0468750
        k(   26) = (   0.4375000   0.3125000   0.5625000), wk =   0.0468750
        k(   27) = (  -0.0625000  -0.9375000   0.0625000), wk =   0.0234375
        k(   28) = (  -0.1875000  -0.8125000  -0.0625000), wk =   0.0468750
        k(   29) = (  -0.3125000  -0.6875000  -0.1875000), wk =   0.0468750
        k(   30) = (  -0.0625000  -0.6875000   0.0625000), wk =   0.0234375
        k(   31) = (  -0.1875000  -0.5625000  -0.0625000), wk =   0.0468750
        k(   32) = (  -0.0625000  -0.4375000   0.0625000), wk =   0.0234375
        k(   33) = (  -0.1875000   0.1875000   0.1875000), wk =   0.0078125
        k(   34) = (  -0.3125000   0.3125000   0.0625000), wk =   0.0234375
        k(   35) = (  -0.4375000   0.4375000  -0.0625000), wk =   0.0234375
        k(   36) = (   0.4375000  -0.4375000   0.8125000), wk =   0.0234375
        k(   37) = (   0.3125000  -0.3125000   0.6875000), wk =   0.0234375
        k(   38) = (   0.1875000  -0.1875000   0.5625000), wk =   0.0234375
        k(   39) = (  -0.1875000   0.4375000   0.1875000), wk =   0.0234375
        k(   40) = (  -0.3125000   0.5625000   0.0625000), wk =   0.0468750
        k(   41) = (   0.5625000  -0.3125000   0.9375000), wk =   0.0468750
        k(   42) = (   0.4375000  -0.1875000   0.8125000), wk =   0.0468750
        k(   43) = (   0.3125000  -0.0625000   0.6875000), wk =   0.0468750
        k(   44) = (  -0.1875000   0.6875000   0.1875000), wk =   0.0234375
        k(   45) = (   0.6875000  -0.1875000   1.0625000), wk =   0.0468750
        k(   46) = (   0.5625000  -0.0625000   0.9375000), wk =   0.0468750
        k(   47) = (   0.4375000   0.0625000   0.8125000), wk =   0.0468750
        k(   48) = (  -0.1875000  -1.0625000   0.1875000), wk =   0.0234375
        k(   49) = (  -0.3125000  -0.9375000   0.0625000), wk =   0.0468750
        k(   50) = (  -0.1875000  -0.8125000   0.1875000), wk =   0.0234375
        k(   51) = (  -0.3125000   0.3125000   0.3125000), wk =   0.0078125
        k(   52) = (  -0.4375000   0.4375000   0.1875000), wk =   0.0234375
        k(   53) = (   0.4375000  -0.4375000   1.0625000), wk =   0.0234375
        k(   54) = (   0.3125000  -0.3125000   0.9375000), wk =   0.0234375
        k(   55) = (  -0.3125000   0.5625000   0.3125000), wk =   0.0234375
        k(   56) = (   0.5625000  -0.3125000   1.1875000), wk =   0.0468750
        k(   57) = (   0.4375000  -0.1875000   1.0625000), wk =   0.0468750
        k(   58) = (  -0.3125000  -1.1875000   0.3125000), wk =   0.0234375
        k(   59) = (  -0.4375000   0.4375000   0.4375000), wk =   0.0078125
        k(   60) = (   0.4375000  -0.4375000   1.3125000), wk =   0.0234375

     Dense  grid:      609 G-vectors     FFT dimensions: (  12,  12,  12)

     Estimated max dynamical RAM per process >       0.51 MB

     Estimated total dynamical RAM >       1.01 MB

     Initial potential from superposition of free atoms

     starting charge    2.99794, renormalised to    3.00000
     Starting wfcs are    4 randomized atomic wfcs +    2 random wfcs

     total cpu time spent up to now is        0.0 secs

     Self-consistent Calculation

     iteration #  1     ecut=    12.00 Ry     beta= 0.70
     Davidson diagonalization with overlap
     ethr =  1.00E-02,  avg # of iterations =  4.2

     Threshold (ethr) on eigenvalues was too large:
     Diagonalizing with lowered threshold

     Davidson diagonalization with overlap
     ethr =  2.05E-04,  avg # of iterations =  1.1

     total cpu time spent up to now is        0.2 secs

     total energy              =      -4.18356308 Ry
     Harris-Foulkes estimate   =      -4.18439567 Ry
     estimated scf accuracy    <       0.00613374 Ry

     iteration #  2     ecut=    12.00 Ry     beta= 0.70
     Davidson diagonalization with overlap
     ethr =  2.04E-04,  avg # of iterations =  1.0

     total cpu time spent up to now is        0.3 secs

     total energy              =      -4.18355484 Ry
     Harris-Foulkes estimate   =      -4.18358804 Ry
     estimated scf accuracy    <       0.00047810 Ry

     iteration #  3     ecut=    12.00 Ry     beta= 0.70
     Davidson diagonalization with overlap
     ethr =  1.59E-05,  avg # of iterations =  1.2

     total cpu time spent up to now is        0.3 secs

     total energy              =      -4.18355761 Ry
     Harris-Foulkes estimate   =      -4.18355755 Ry
     estimated scf accuracy    <       0.00000032 Ry

     iteration #  4     ecut=    12.00 Ry     beta= 0.70
     Davidson diagonalization with overlap
     ethr =  1.07E-08,  avg # of iterations =  1.8

     total cpu time spent up to now is        0.4 secs

     total energy              =      -4.18355763 Ry
     Harris-Foulkes estimate   =      -4.18355763 Ry
     estimated scf accuracy    <          3.2E-09 Ry

     iteration #  5     ecut=    12.00 Ry     beta= 0.70
     Davidson diagonalization with overlap
     ethr =  1.07E-10,  avg # of iterations =  1.5

     total cpu time spent up to now is        0.4 secs

     End of self-consistent calculation

          k =-0.0625 0.0625 0.0625 (    65 PWs)   bands (ev):

    -3.0490  19.3457  20.8144  20.8144  23.1675  23.1675

          k =-0.1875 0.1875-0.0625 (    65 PWs)   bands (ev):

    -2.4553  15.9293  18.1748  21.3506  23.3906  23.8188

          k =-0.3125 0.3125-0.1875 (    72 PWs)   bands (ev):

    -0.9968  11.1124  17.4199  20.7333  21.8011  23.3114

          k =-0.4375 0.4375-0.3125 (    73 PWs)   bands (ev):

     1.3006   6.8548  17.4323  19.7884  20.8127  21.3886

          k = 0.4375-0.4375 0.5625 (    74 PWs)   bands (ev):

     3.2599   4.4036  18.1903  18.5584  20.1086  21.5563

          k = 0.3125-0.3125 0.4375 (    74 PWs)   bands (ev):

     0.4433   8.2010  18.0537  19.5377  19.7273  23.0358

          k = 0.1875-0.1875 0.3125 (    69 PWs)   bands (ev):

    -1.5770  12.6773  18.2792  19.7344  21.9204  24.1757

          k = 0.0625-0.0625 0.1875 (    64 PWs)   bands (ev):

    -2.7508  17.6583  19.2210  20.3224  22.5012  24.5216

          k =-0.0625 0.3125 0.0625 (    68 PWs)   bands (ev):

    -2.1648  16.1214  17.7741  18.9561  21.4660  21.8444

          k =-0.1875 0.4375-0.0625 (    73 PWs)   bands (ev):

    -0.9984  13.0564  15.5390  18.6284  19.6030  22.3540

          k =-0.3125 0.5625-0.1875 (    73 PWs)   bands (ev):

     1.0150   8.7147  15.1863  16.3670  19.6637  24.4699

          k = 0.5625-0.3125 0.6875 (    76 PWs)   bands (ev):

     3.8077   4.9517  14.7080  15.8026  20.2421  23.0638

          k = 0.4375-0.1875 0.5625 (    75 PWs)   bands (ev):

     1.8644   7.3727  13.9925  17.0357  21.4949  22.3311

          k = 0.3125-0.0625 0.4375 (    74 PWs)   bands (ev):

    -0.4204  11.4827  14.1302  19.0472  22.0266  23.4569

          k = 0.1875 0.0625 0.3125 (    68 PWs)   bands (ev):

    -1.8700  14.3744  16.7776  20.7449  21.7238  23.3367

          k =-0.0625 0.5625 0.0625 (    76 PWs)   bands (ev):

    -0.1347  13.7506  15.2570  15.5966  16.6382  19.8230

          k =-0.1875 0.6875-0.0625 (    77 PWs)   bands (ev):

     1.5766  11.1820  12.6068  13.8902  17.8148  20.8653

          k = 0.6875-0.1875 0.8125 (    75 PWs)   bands (ev):

     4.0803   7.3581  10.8380  14.0119  18.4400  24.5986

          k = 0.5625-0.0625 0.6875 (    73 PWs)   bands (ev):

     4.0948   7.2389   9.9396  15.0166  19.5720  26.2141

          k = 0.4375 0.0625 0.5625 (    75 PWs)   bands (ev):

     1.5796   9.0971  11.8117  16.7886  21.3481  23.9155

          k = 0.3125 0.1875 0.4375 (    72 PWs)   bands (ev):

    -0.1290   9.7870  16.2219  19.2793  20.4892  23.6060

          k =-0.0625 0.8125 0.0625 (    76 PWs)   bands (ev):

     2.9740   9.7196  12.4447  14.3964  15.2872  18.6556

          k = 0.8125-0.0625 0.9375 (    74 PWs)   bands (ev):

     5.0867   7.6656  10.4348  13.0750  17.0287  20.2000

          k = 0.6875 0.0625 0.8125 (    74 PWs)   bands (ev):

     5.8761   7.0565   8.6039  13.7495  18.1863  24.4166

          k = 0.5625 0.1875 0.6875 (    78 PWs)   bands (ev):

     4.3543   5.4844  12.1647  15.2683  19.7970  24.5324

          k = 0.4375 0.3125 0.5625 (    73 PWs)   bands (ev):

     2.4283   5.7671  16.4576  17.5300  20.7845  21.8889

          k =-0.0625-0.9375 0.0625 (    72 PWs)   bands (ev):

     4.8204   7.4037  12.1779  14.1595  15.0186  18.4422

          k =-0.1875-0.8125-0.0625 (    77 PWs)   bands (ev):

     3.2503   9.9299  10.7370  13.3378  17.2910  20.4102

          k =-0.3125-0.6875-0.1875 (    74 PWs)   bands (ev):

     2.4262   7.9042  13.4015  14.5671  18.9473  24.8881

          k =-0.0625-0.6875 0.0625 (    76 PWs)   bands (ev):

     1.2932  12.3367  13.0046  14.8753  15.8275  19.1330

          k =-0.1875-0.5625-0.0625 (    76 PWs)   bands (ev):

     0.1540  11.9942  14.4800  15.6268  18.5932  21.5243

          k =-0.0625-0.4375 0.0625 (    76 PWs)   bands (ev):

    -1.2930  14.8124  16.5625  17.6412  18.3961  20.6801

          k =-0.1875 0.1875 0.1875 (    65 PWs)   bands (ev):

    -2.1598  14.2332  19.7349  19.7349  23.1337  24.4700

          k =-0.3125 0.3125 0.0625 (    71 PWs)   bands (ev):

    -1.2882  12.8050  15.3844  21.4333  22.5085  23.5134

          k =-0.4375 0.4375-0.0625 (    73 PWs)   bands (ev):

     0.4430  10.1618  12.8658  19.0453  21.1327  24.0623

          k = 0.4375-0.4375 0.8125 (    77 PWs)   bands (ev):

     2.9835   6.2896  12.9667  17.3217  19.2972  24.3381

          k = 0.3125-0.3125 0.6875 (    77 PWs)   bands (ev):

     2.9828   6.3038  13.9778  16.3386  18.1802  25.3228

          k = 0.1875-0.1875 0.5625 (    75 PWs)   bands (ev):

     0.4429  10.2883  15.7729  16.0874  17.8127  23.3940

          k =-0.1875 0.4375 0.1875 (    71 PWs)   bands (ev):

    -0.7056  11.3579  17.0603  18.6201  18.9848  24.1939

          k =-0.3125 0.5625 0.0625 (    75 PWs)   bands (ev):

     0.7268  10.4209  13.0842  16.1086  21.1410  23.5302

          k = 0.5625-0.3125 0.9375 (    75 PWs)   bands (ev):

     2.9843   8.2990  10.9876  14.0703  22.4226  23.3272

          k = 0.4375-0.1875 0.8125 (    74 PWs)   bands (ev):

     4.8899   6.0352  11.5484  12.8596  21.1806  24.2035

          k = 0.3125-0.0625 0.6875 (    76 PWs)   bands (ev):

     2.1413   9.6193  12.1884  13.3915  20.4039  23.0631

          k =-0.1875 0.6875 0.1875 (    77 PWs)   bands (ev):

     1.8601   9.4802  12.9316  15.3618  17.0079  22.7512

          k = 0.6875-0.1875 1.0625 (    76 PWs)   bands (ev):

     3.8068   9.0685  10.4719  11.9765  19.8943  22.6804

          k = 0.5625-0.0625 0.9375 (    75 PWs)   bands (ev):

     6.4069   7.4791   8.9599  10.4655  22.5046  24.7206

          k = 0.4375 0.0625 0.8125 (    73 PWs)   bands (ev):

     4.6317   7.7658  10.3213  11.6159  22.7237  23.8733

          k =-0.1875-1.0625 0.1875 (    74 PWs)   bands (ev):

     5.3509   7.8647   8.8217  14.6420  16.1930  22.0962

          k =-0.3125-0.9375 0.0625 (    75 PWs)   bands (ev):

     5.6187   8.1374   8.9158  11.6452  19.6378  22.4770

          k =-0.1875-0.8125 0.1875 (    76 PWs)   bands (ev):

     3.5300   8.9098  10.3403  14.8802  16.4637  22.3133

          k =-0.3125 0.3125 0.3125 (    74 PWs)   bands (ev):

    -0.4192   9.5378  19.2837  19.2837  22.2760  22.2760

          k =-0.4375 0.4375 0.1875 (    74 PWs)   bands (ev):

     0.7287   8.4513  15.0187  19.2930  21.2830  22.3164

          k = 0.4375-0.4375 1.0625 (    75 PWs)   bands (ev):

     2.7069   8.0340  10.7533  17.0780  19.0757  26.1239

          k = 0.3125-0.3125 0.9375 (    74 PWs)   bands (ev):

     5.4447   6.4512   9.1276  15.6148  17.4153  26.6829

          k =-0.3125 0.5625 0.3125 (    73 PWs)   bands (ev):

     1.5838   7.1214  16.7847  17.0719  18.8937  24.0578

          k = 0.5625-0.3125 1.1875 (    76 PWs)   bands (ev):

     3.2616   6.5614  13.1396  14.3694  21.5954  22.8017

          k = 0.4375-0.1875 1.0625 (    75 PWs)   bands (ev):

     5.7019   6.7162   9.3668  12.5342  20.9502  25.7478

          k =-0.3125-1.1875 0.3125 (    74 PWs)   bands (ev):

     4.6166   5.7753  11.3828  15.8553  17.6801  26.7814

          k =-0.4375 0.4375 0.4375 (    73 PWs)   bands (ev):

     2.1478   5.4964  19.5505  19.5505  20.5509  20.5509

          k = 0.4375-0.4375 1.3125 (    75 PWs)   bands (ev):

     3.5353   4.6774  15.5124  17.8145  19.7129  22.8239

     the Fermi energy is     8.3011 ev

!    total energy              =      -4.18355763 Ry
     Harris-Foulkes estimate   =      -4.18355763 Ry
     estimated scf accuracy    <          1.2E-11 Ry

     The total energy is the sum of the following terms:

     one-electron contribution =       2.94363235 Ry
     hartree contribution      =       0.00999845 Ry
     xc contribution           =      -1.63460897 Ry
     ewald contribution        =      -5.50183452 Ry
     smearing contrib. (-TS)   =      -0.00074493 Ry

     convergence has been achieved in   5 iterations

     Writing output data file pwscf.save/

     init_run     :      0.02s CPU      0.03s WALL (       1 calls)
     electrons    :      0.33s CPU      0.41s WALL (       1 calls)

     Called by init_run:
     wfcinit      :      0.02s CPU      0.02s WALL (       1 calls)
     potinit      :      0.00s CPU      0.00s WALL (       1 calls)
     hinit0       :      0.00s CPU      0.00s WALL (       1 calls)

     Called by electrons:
     c_bands      :      0.28s CPU      0.35s WALL (       6 calls)
     sum_band     :      0.04s CPU      0.05s WALL (       6 calls)
     v_of_rho     :      0.00s CPU      0.00s WALL (       6 calls)
     mix_rho      :      0.00s CPU      0.00s WALL (       6 calls)

     Called by c_bands:
     init_us_2    :      0.01s CPU      0.01s WALL (     780 calls)
     cegterg      :      0.28s CPU      0.34s WALL (     360 calls)

     Called by sum_band:

     Called by *egterg:
     h_psi        :      0.19s CPU      0.23s WALL (    1076 calls)
     g_psi        :      0.00s CPU      0.00s WALL (     656 calls)
     cdiaghg      :      0.07s CPU      0.08s WALL (     956 calls)

     Called by h_psi:
     h_psi:pot    :      0.19s CPU      0.23s WALL (    1076 calls)
     h_psi:calbec :      0.01s CPU      0.01s WALL (    1076 calls)
     vloc_psi     :      0.17s CPU      0.22s WALL (    1076 calls)
     add_vuspsi   :      0.00s CPU      0.00s WALL (    1076 calls)

     General routines
     calbec       :      0.00s CPU      0.01s WALL (    1076 calls)
     fft          :      0.00s CPU      0.00s WALL (      18 calls)
     ffts         :      0.00s CPU      0.00s WALL (       6 calls)
     fftw         :      0.18s CPU      0.23s WALL (   13236 calls)

     Parallel routines
     fft_scatt_xy :      0.03s CPU      0.03s WALL (   13260 calls)
     fft_scatt_yz :      0.04s CPU      0.05s WALL (   13260 calls)

     PWSCF        :      0.37s CPU      0.46s WALL


   This run was terminated on:  18:34:52  13Aug2019            

=------------------------------------------------------------------------------=
   JOB DONE.
=------------------------------------------------------------------------------=
