### Running on host: assam

     Program PWSCF v.6.4.1 starts on 13Aug2019 at 18:34:50 

     This program is part of the open-source Quantum ESPRESSO suite
     for quantum simulation of materials; please cite
         "P. Giannozzi et al., J. Phys.:Condens. Matter 21 395502 (2009);
         "P. Giannozzi et al., J. Phys.:Condens. Matter 29 465901 (2017);
          URL http://www.quantum-espresso.org", 
     in publications or presentations arising from this work. More details at
     http://www.quantum-espresso.org/quote

     Parallel version (MPI), running on     2 processors

     MPI processes distributed on     1 nodes
     R & G space division:  proc/nbgrp/npool/nimage =       2
     Reading input from scf.Al.mv-smearing.dg0.06.nk-8.in

     Current dimensions of program PWSCF are:
     Max number of different atomic species (ntypx) = 10
     Max number of k-points (npk) =  40000
     Max angular momentum in pseudopotentials (lmaxx) =  3

     Subspace diagonalization in iterative solution of the eigenvalue problem:
     a serial algorithm will be used


     Parallelization info
     --------------------
     sticks:   dense  smooth     PW     G-vecs:    dense   smooth      PW
     Min          45      45     18                  304      304      83
     Max          46      46     19                  305      305      86
     Sum          91      91     37                  609      609     169



     bravais-lattice index     =            2
     lattice parameter (alat)  =       7.5000  a.u.
     unit-cell volume          =     105.4688 (a.u.)^3
     number of atoms/cell      =            1
     number of atomic types    =            1
     number of electrons       =         3.00
     number of Kohn-Sham states=            6
     kinetic-energy cutoff     =      12.0000  Ry
     charge density cutoff     =      48.0000  Ry
     convergence threshold     =      1.0E-09
     mixing beta               =       0.7000
     number of iterations used =            8  plain     mixing
     Exchange-correlation      =  SLA  PZ   NOGX NOGC ( 1  1  0  0 0 0)

     celldm(1)=   7.500000  celldm(2)=   0.000000  celldm(3)=   0.000000
     celldm(4)=   0.000000  celldm(5)=   0.000000  celldm(6)=   0.000000

     crystal axes: (cart. coord. in units of alat)
               a(1) = (  -0.500000   0.000000   0.500000 )  
               a(2) = (   0.000000   0.500000   0.500000 )  
               a(3) = (  -0.500000   0.500000   0.000000 )  

     reciprocal axes: (cart. coord. in units 2 pi/alat)
               b(1) = ( -1.000000 -1.000000  1.000000 )  
               b(2) = (  1.000000  1.000000  1.000000 )  
               b(3) = ( -1.000000  1.000000 -1.000000 )  


     PseudoPot. # 1 for Al read from file:
     /home/matic/pw/pseudo/Al.pz-vbc.UPF
     MD5 check sum: 614279c88ff8d45c90147292d03ed420
     Pseudo is Norm-conserving, Zval =  3.0
     Generated by new atomic code, or converted to UPF format
     Using radial grid of  171 points,  2 beta functions with: 
                l(1) =   0
                l(2) =   1

     atomic species   valence    mass     pseudopotential
        Al             3.00    26.98100     Al( 1.00)

     48 Sym. Ops., with inversion, found



   Cartesian axes

     site n.     atom                  positions (alat units)
         1           Al  tau(   1) = (   0.0000000   0.0000000   0.0000000  )

     number of k points=    60  Marzari-Vanderbilt smearing, width (Ry)=  0.0600
                       cart. coord. in units 2pi/alat
        k(    1) = (  -0.0625000   0.0625000   0.0625000), wk =   0.0078125
        k(    2) = (  -0.1875000   0.1875000  -0.0625000), wk =   0.0234375
        k(    3) = (  -0.3125000   0.3125000  -0.1875000), wk =   0.0234375
        k(    4) = (  -0.4375000   0.4375000  -0.3125000), wk =   0.0234375
        k(    5) = (   0.4375000  -0.4375000   0.5625000), wk =   0.0234375
        k(    6) = (   0.3125000  -0.3125000   0.4375000), wk =   0.0234375
        k(    7) = (   0.1875000  -0.1875000   0.3125000), wk =   0.0234375
        k(    8) = (   0.0625000  -0.0625000   0.1875000), wk =   0.0234375
        k(    9) = (  -0.0625000   0.3125000   0.0625000), wk =   0.0234375
        k(   10) = (  -0.1875000   0.4375000  -0.0625000), wk =   0.0468750
        k(   11) = (  -0.3125000   0.5625000  -0.1875000), wk =   0.0468750
        k(   12) = (   0.5625000  -0.3125000   0.6875000), wk =   0.0468750
        k(   13) = (   0.4375000  -0.1875000   0.5625000), wk =   0.0468750
        k(   14) = (   0.3125000  -0.0625000   0.4375000), wk =   0.0468750
        k(   15) = (   0.1875000   0.0625000   0.3125000), wk =   0.0468750
        k(   16) = (  -0.0625000   0.5625000   0.0625000), wk =   0.0234375
        k(   17) = (  -0.1875000   0.6875000  -0.0625000), wk =   0.0468750
        k(   18) = (   0.6875000  -0.1875000   0.8125000), wk =   0.0468750
        k(   19) = (   0.5625000  -0.0625000   0.6875000), wk =   0.0468750
        k(   20) = (   0.4375000   0.0625000   0.5625000), wk =   0.0468750
        k(   21) = (   0.3125000   0.1875000   0.4375000), wk =   0.0468750
        k(   22) = (  -0.0625000   0.8125000   0.0625000), wk =   0.0234375
        k(   23) = (   0.8125000  -0.0625000   0.9375000), wk =   0.0468750
        k(   24) = (   0.6875000   0.0625000   0.8125000), wk =   0.0468750
        k(   25) = (   0.5625000   0.1875000   0.6875000), wk =   0.0468750
        k(   26) = (   0.4375000   0.3125000   0.5625000), wk =   0.0468750
        k(   27) = (  -0.0625000  -0.9375000   0.0625000), wk =   0.0234375
        k(   28) = (  -0.1875000  -0.8125000  -0.0625000), wk =   0.0468750
        k(   29) = (  -0.3125000  -0.6875000  -0.1875000), wk =   0.0468750
        k(   30) = (  -0.0625000  -0.6875000   0.0625000), wk =   0.0234375
        k(   31) = (  -0.1875000  -0.5625000  -0.0625000), wk =   0.0468750
        k(   32) = (  -0.0625000  -0.4375000   0.0625000), wk =   0.0234375
        k(   33) = (  -0.1875000   0.1875000   0.1875000), wk =   0.0078125
        k(   34) = (  -0.3125000   0.3125000   0.0625000), wk =   0.0234375
        k(   35) = (  -0.4375000   0.4375000  -0.0625000), wk =   0.0234375
        k(   36) = (   0.4375000  -0.4375000   0.8125000), wk =   0.0234375
        k(   37) = (   0.3125000  -0.3125000   0.6875000), wk =   0.0234375
        k(   38) = (   0.1875000  -0.1875000   0.5625000), wk =   0.0234375
        k(   39) = (  -0.1875000   0.4375000   0.1875000), wk =   0.0234375
        k(   40) = (  -0.3125000   0.5625000   0.0625000), wk =   0.0468750
        k(   41) = (   0.5625000  -0.3125000   0.9375000), wk =   0.0468750
        k(   42) = (   0.4375000  -0.1875000   0.8125000), wk =   0.0468750
        k(   43) = (   0.3125000  -0.0625000   0.6875000), wk =   0.0468750
        k(   44) = (  -0.1875000   0.6875000   0.1875000), wk =   0.0234375
        k(   45) = (   0.6875000  -0.1875000   1.0625000), wk =   0.0468750
        k(   46) = (   0.5625000  -0.0625000   0.9375000), wk =   0.0468750
        k(   47) = (   0.4375000   0.0625000   0.8125000), wk =   0.0468750
        k(   48) = (  -0.1875000  -1.0625000   0.1875000), wk =   0.0234375
        k(   49) = (  -0.3125000  -0.9375000   0.0625000), wk =   0.0468750
        k(   50) = (  -0.1875000  -0.8125000   0.1875000), wk =   0.0234375
        k(   51) = (  -0.3125000   0.3125000   0.3125000), wk =   0.0078125
        k(   52) = (  -0.4375000   0.4375000   0.1875000), wk =   0.0234375
        k(   53) = (   0.4375000  -0.4375000   1.0625000), wk =   0.0234375
        k(   54) = (   0.3125000  -0.3125000   0.9375000), wk =   0.0234375
        k(   55) = (  -0.3125000   0.5625000   0.3125000), wk =   0.0234375
        k(   56) = (   0.5625000  -0.3125000   1.1875000), wk =   0.0468750
        k(   57) = (   0.4375000  -0.1875000   1.0625000), wk =   0.0468750
        k(   58) = (  -0.3125000  -1.1875000   0.3125000), wk =   0.0234375
        k(   59) = (  -0.4375000   0.4375000   0.4375000), wk =   0.0078125
        k(   60) = (   0.4375000  -0.4375000   1.3125000), wk =   0.0234375

     Dense  grid:      609 G-vectors     FFT dimensions: (  12,  12,  12)

     Estimated max dynamical RAM per process >       0.51 MB

     Estimated total dynamical RAM >       1.01 MB

     Initial potential from superposition of free atoms

     starting charge    2.99794, renormalised to    3.00000
     Starting wfcs are    4 randomized atomic wfcs +    2 random wfcs

     total cpu time spent up to now is        0.0 secs

     Self-consistent Calculation

     iteration #  1     ecut=    12.00 Ry     beta= 0.70
     Davidson diagonalization with overlap
     ethr =  1.00E-02,  avg # of iterations =  4.2

     Threshold (ethr) on eigenvalues was too large:
     Diagonalizing with lowered threshold

     Davidson diagonalization with overlap
     ethr =  2.05E-04,  avg # of iterations =  1.1

     total cpu time spent up to now is        0.2 secs

     total energy              =      -4.18346178 Ry
     Harris-Foulkes estimate   =      -4.18430263 Ry
     estimated scf accuracy    <       0.00615145 Ry

     iteration #  2     ecut=    12.00 Ry     beta= 0.70
     Davidson diagonalization with overlap
     ethr =  2.05E-04,  avg # of iterations =  1.0

     total cpu time spent up to now is        0.3 secs

     total energy              =      -4.18345366 Ry
     Harris-Foulkes estimate   =      -4.18348717 Ry
     estimated scf accuracy    <       0.00047874 Ry

     iteration #  3     ecut=    12.00 Ry     beta= 0.70
     Davidson diagonalization with overlap
     ethr =  1.60E-05,  avg # of iterations =  1.2

     total cpu time spent up to now is        0.3 secs

     total energy              =      -4.18345647 Ry
     Harris-Foulkes estimate   =      -4.18345641 Ry
     estimated scf accuracy    <       0.00000033 Ry

     iteration #  4     ecut=    12.00 Ry     beta= 0.70
     Davidson diagonalization with overlap
     ethr =  1.10E-08,  avg # of iterations =  1.8

     total cpu time spent up to now is        0.4 secs

     total energy              =      -4.18345649 Ry
     Harris-Foulkes estimate   =      -4.18345649 Ry
     estimated scf accuracy    <          3.2E-09 Ry

     iteration #  5     ecut=    12.00 Ry     beta= 0.70
     Davidson diagonalization with overlap
     ethr =  1.08E-10,  avg # of iterations =  1.5

     total cpu time spent up to now is        0.4 secs

     End of self-consistent calculation

          k =-0.0625 0.0625 0.0625 (    65 PWs)   bands (ev):

    -3.0491  19.3455  20.8142  20.8142  23.1673  23.1673

          k =-0.1875 0.1875-0.0625 (    65 PWs)   bands (ev):

    -2.4553  15.9291  18.1747  21.3504  23.3903  23.8185

          k =-0.3125 0.3125-0.1875 (    72 PWs)   bands (ev):

    -0.9969  11.1123  17.4198  20.7331  21.8009  23.3113

          k =-0.4375 0.4375-0.3125 (    73 PWs)   bands (ev):

     1.3005   6.8547  17.4322  19.7882  20.8125  21.3885

          k = 0.4375-0.4375 0.5625 (    74 PWs)   bands (ev):

     3.2598   4.4035  18.1902  18.5582  20.1085  21.5562

          k = 0.3125-0.3125 0.4375 (    74 PWs)   bands (ev):

     0.4432   8.2009  18.0536  19.5377  19.7271  23.0356

          k = 0.1875-0.1875 0.3125 (    69 PWs)   bands (ev):

    -1.5770  12.6771  18.2791  19.7342  21.9202  24.1755

          k = 0.0625-0.0625 0.1875 (    64 PWs)   bands (ev):

    -2.7509  17.6581  19.2208  20.3222  22.5009  24.5214

          k =-0.0625 0.3125 0.0625 (    68 PWs)   bands (ev):

    -2.1649  16.1212  17.7739  18.9559  21.4656  21.8446

          k =-0.1875 0.4375-0.0625 (    73 PWs)   bands (ev):

    -0.9985  13.0562  15.5389  18.6282  19.6028  22.3539

          k =-0.3125 0.5625-0.1875 (    73 PWs)   bands (ev):

     1.0149   8.7146  15.1862  16.3668  19.6635  24.4697

          k = 0.5625-0.3125 0.6875 (    76 PWs)   bands (ev):

     3.8076   4.9515  14.7079  15.8024  20.2419  23.0637

          k = 0.4375-0.1875 0.5625 (    75 PWs)   bands (ev):

     1.8643   7.3725  13.9924  17.0355  21.4947  22.3309

          k = 0.3125-0.0625 0.4375 (    74 PWs)   bands (ev):

    -0.4205  11.4826  14.1301  19.0470  22.0265  23.4567

          k = 0.1875 0.0625 0.3125 (    68 PWs)   bands (ev):

    -1.8700  14.3743  16.7774  20.7447  21.7236  23.3366

          k =-0.0625 0.5625 0.0625 (    76 PWs)   bands (ev):

    -0.1348  13.7504  15.2570  15.5964  16.6380  19.8229

          k =-0.1875 0.6875-0.0625 (    77 PWs)   bands (ev):

     1.5765  11.1818  12.6068  13.8901  17.8146  20.8652

          k = 0.6875-0.1875 0.8125 (    75 PWs)   bands (ev):

     4.0802   7.3580  10.8380  14.0117  18.4398  24.5984

          k = 0.5625-0.0625 0.6875 (    73 PWs)   bands (ev):

     4.0948   7.2388   9.9396  15.0164  19.5719  26.2139

          k = 0.4375 0.0625 0.5625 (    75 PWs)   bands (ev):

     1.5795   9.0969  11.8116  16.7884  21.3479  23.9153

          k = 0.3125 0.1875 0.4375 (    72 PWs)   bands (ev):

    -0.1291   9.7869  16.2217  19.2791  20.4890  23.6058

          k =-0.0625 0.8125 0.0625 (    76 PWs)   bands (ev):

     2.9739   9.7196  12.4445  14.3963  15.2870  18.6555

          k = 0.8125-0.0625 0.9375 (    74 PWs)   bands (ev):

     5.0866   7.6656  10.4346  13.0749  17.0285  20.1999

          k = 0.6875 0.0625 0.8125 (    74 PWs)   bands (ev):

     5.8760   7.0565   8.6038  13.7493  18.1861  24.4165

          k = 0.5625 0.1875 0.6875 (    78 PWs)   bands (ev):

     4.3543   5.4842  12.1646  15.2682  19.7969  24.5322

          k = 0.4375 0.3125 0.5625 (    73 PWs)   bands (ev):

     2.4282   5.7669  16.4575  17.5298  20.7844  21.8888

          k =-0.0625-0.9375 0.0625 (    72 PWs)   bands (ev):

     4.8203   7.4037  12.1777  14.1594  15.0184  18.4421

          k =-0.1875-0.8125-0.0625 (    77 PWs)   bands (ev):

     3.2502   9.9299  10.7368  13.3377  17.2908  20.4101

          k =-0.3125-0.6875-0.1875 (    74 PWs)   bands (ev):

     2.4261   7.9041  13.4014  14.5669  18.9472  24.8880

          k =-0.0625-0.6875 0.0625 (    76 PWs)   bands (ev):

     1.2931  12.3366  13.0044  14.8751  15.8273  19.1329

          k =-0.1875-0.5625-0.0625 (    76 PWs)   bands (ev):

     0.1540  11.9940  14.4800  15.6266  18.5930  21.5242

          k =-0.0625-0.4375 0.0625 (    76 PWs)   bands (ev):

    -1.2931  14.8122  16.5624  17.6410  18.3959  20.6800

          k =-0.1875 0.1875 0.1875 (    65 PWs)   bands (ev):

    -2.1598  14.2330  19.7348  19.7348  23.1335  24.4697

          k =-0.3125 0.3125 0.0625 (    71 PWs)   bands (ev):

    -1.2883  12.8048  15.3843  21.4331  22.5083  23.5133

          k =-0.4375 0.4375-0.0625 (    73 PWs)   bands (ev):

     0.4429  10.1616  12.8658  19.0451  21.1326  24.0621

          k = 0.4375-0.4375 0.8125 (    77 PWs)   bands (ev):

     2.9834   6.2895  12.9666  17.3216  19.2971  24.3380

          k = 0.3125-0.3125 0.6875 (    77 PWs)   bands (ev):

     2.9827   6.3037  13.9777  16.3384  18.1801  25.3227

          k = 0.1875-0.1875 0.5625 (    75 PWs)   bands (ev):

     0.4428  10.2882  15.7728  16.0873  17.8125  23.3939

          k =-0.1875 0.4375 0.1875 (    71 PWs)   bands (ev):

    -0.7057  11.3577  17.0601  18.6202  18.9845  24.1937

          k =-0.3125 0.5625 0.0625 (    75 PWs)   bands (ev):

     0.7268  10.4208  13.0841  16.1085  21.1408  23.5300

          k = 0.5625-0.3125 0.9375 (    75 PWs)   bands (ev):

     2.9842   8.2989  10.9875  14.0701  22.4224  23.3270

          k = 0.4375-0.1875 0.8125 (    74 PWs)   bands (ev):

     4.8899   6.0351  11.5483  12.8594  21.1804  24.2033

          k = 0.3125-0.0625 0.6875 (    76 PWs)   bands (ev):

     2.1412   9.6192  12.1884  13.3913  20.4037  23.0630

          k =-0.1875 0.6875 0.1875 (    77 PWs)   bands (ev):

     1.8600   9.4801  12.9315  15.3616  17.0077  22.7511

          k = 0.6875-0.1875 1.0625 (    76 PWs)   bands (ev):

     3.8067   9.0684  10.4719  11.9763  19.8941  22.6803

          k = 0.5625-0.0625 0.9375 (    75 PWs)   bands (ev):

     6.4068   7.4790   8.9600  10.4653  22.5044  24.7204

          k = 0.4375 0.0625 0.8125 (    73 PWs)   bands (ev):

     4.6316   7.7656  10.3214  11.6157  22.7235  23.8731

          k =-0.1875-1.0625 0.1875 (    74 PWs)   bands (ev):

     5.3508   7.8648   8.8215  14.6418  16.1929  22.0961

          k =-0.3125-0.9375 0.0625 (    75 PWs)   bands (ev):

     5.6185   8.1375   8.9156  11.6450  19.6376  22.4769

          k =-0.1875-0.8125 0.1875 (    76 PWs)   bands (ev):

     3.5299   8.9097  10.3402  14.8800  16.4636  22.3131

          k =-0.3125 0.3125 0.3125 (    74 PWs)   bands (ev):

    -0.4193   9.5377  19.2836  19.2836  22.2759  22.2759

          k =-0.4375 0.4375 0.1875 (    74 PWs)   bands (ev):

     0.7287   8.4512  15.0186  19.2928  21.2829  22.3162

          k = 0.4375-0.4375 1.0625 (    75 PWs)   bands (ev):

     2.7068   8.0339  10.7532  17.0778  19.0756  26.1237

          k = 0.3125-0.3125 0.9375 (    74 PWs)   bands (ev):

     5.4446   6.4510   9.1276  15.6146  17.4152  26.6828

          k =-0.3125 0.5625 0.3125 (    73 PWs)   bands (ev):

     1.5837   7.1213  16.7846  17.0717  18.8935  24.0576

          k = 0.5625-0.3125 1.1875 (    76 PWs)   bands (ev):

     3.2616   6.5613  13.1395  14.3692  21.5953  22.8016

          k = 0.4375-0.1875 1.0625 (    75 PWs)   bands (ev):

     5.7019   6.7160   9.3668  12.5341  20.9500  25.7476

          k =-0.3125-1.1875 0.3125 (    74 PWs)   bands (ev):

     4.6165   5.7751  11.3827  15.8551  17.6800  26.7812

          k =-0.4375 0.4375 0.4375 (    73 PWs)   bands (ev):

     2.1478   5.4963  19.5503  19.5503  20.5508  20.5508

          k = 0.4375-0.4375 1.3125 (    75 PWs)   bands (ev):

     3.5352   4.6773  15.5123  17.8143  19.7127  22.8237

     the Fermi energy is     8.2877 ev

!    total energy              =      -4.18345649 Ry
     Harris-Foulkes estimate   =      -4.18345649 Ry
     estimated scf accuracy    <          1.2E-11 Ry

     The total energy is the sum of the following terms:

     one-electron contribution =       2.94295311 Ry
     hartree contribution      =       0.00996863 Ry
     xc contribution           =      -1.63457870 Ry
     ewald contribution        =      -5.50183452 Ry
     smearing contrib. (-TS)   =       0.00003500 Ry

     convergence has been achieved in   5 iterations

     Writing output data file pwscf.save/

     init_run     :      0.02s CPU      0.03s WALL (       1 calls)
     electrons    :      0.35s CPU      0.40s WALL (       1 calls)

     Called by init_run:
     wfcinit      :      0.01s CPU      0.02s WALL (       1 calls)
     potinit      :      0.00s CPU      0.00s WALL (       1 calls)
     hinit0       :      0.00s CPU      0.00s WALL (       1 calls)

     Called by electrons:
     c_bands      :      0.31s CPU      0.35s WALL (       6 calls)
     sum_band     :      0.04s CPU      0.05s WALL (       6 calls)
     v_of_rho     :      0.00s CPU      0.00s WALL (       6 calls)
     mix_rho      :      0.00s CPU      0.00s WALL (       6 calls)

     Called by c_bands:
     init_us_2    :      0.01s CPU      0.01s WALL (     780 calls)
     cegterg      :      0.30s CPU      0.34s WALL (     360 calls)

     Called by sum_band:

     Called by *egterg:
     h_psi        :      0.20s CPU      0.23s WALL (    1076 calls)
     g_psi        :      0.00s CPU      0.00s WALL (     656 calls)
     cdiaghg      :      0.07s CPU      0.08s WALL (     956 calls)

     Called by h_psi:
     h_psi:pot    :      0.20s CPU      0.23s WALL (    1076 calls)
     h_psi:calbec :      0.01s CPU      0.01s WALL (    1076 calls)
     vloc_psi     :      0.19s CPU      0.21s WALL (    1076 calls)
     add_vuspsi   :      0.00s CPU      0.00s WALL (    1076 calls)

     General routines
     calbec       :      0.00s CPU      0.01s WALL (    1076 calls)
     fft          :      0.00s CPU      0.00s WALL (      18 calls)
     ffts         :      0.00s CPU      0.00s WALL (       6 calls)
     fftw         :      0.19s CPU      0.23s WALL (   13230 calls)

     Parallel routines
     fft_scatt_xy :      0.03s CPU      0.03s WALL (   13254 calls)
     fft_scatt_yz :      0.04s CPU      0.05s WALL (   13254 calls)

     PWSCF        :      0.39s CPU      0.45s WALL


   This run was terminated on:  18:34:50  13Aug2019            

=------------------------------------------------------------------------------=
   JOB DONE.
=------------------------------------------------------------------------------=
