### Running on host: assam

     Program PWSCF v.6.4.1 starts on 13Aug2019 at 18:34:59 

     This program is part of the open-source Quantum ESPRESSO suite
     for quantum simulation of materials; please cite
         "P. Giannozzi et al., J. Phys.:Condens. Matter 21 395502 (2009);
         "P. Giannozzi et al., J. Phys.:Condens. Matter 29 465901 (2017);
          URL http://www.quantum-espresso.org", 
     in publications or presentations arising from this work. More details at
     http://www.quantum-espresso.org/quote

     Parallel version (MPI), running on     2 processors

     MPI processes distributed on     1 nodes
     R & G space division:  proc/nbgrp/npool/nimage =       2
     Reading input from scf.Al.mv-smearing.dg0.14.nk-8.in

     Current dimensions of program PWSCF are:
     Max number of different atomic species (ntypx) = 10
     Max number of k-points (npk) =  40000
     Max angular momentum in pseudopotentials (lmaxx) =  3

     Subspace diagonalization in iterative solution of the eigenvalue problem:
     a serial algorithm will be used


     Parallelization info
     --------------------
     sticks:   dense  smooth     PW     G-vecs:    dense   smooth      PW
     Min          45      45     18                  304      304      83
     Max          46      46     19                  305      305      86
     Sum          91      91     37                  609      609     169



     bravais-lattice index     =            2
     lattice parameter (alat)  =       7.5000  a.u.
     unit-cell volume          =     105.4688 (a.u.)^3
     number of atoms/cell      =            1
     number of atomic types    =            1
     number of electrons       =         3.00
     number of Kohn-Sham states=            6
     kinetic-energy cutoff     =      12.0000  Ry
     charge density cutoff     =      48.0000  Ry
     convergence threshold     =      1.0E-09
     mixing beta               =       0.7000
     number of iterations used =            8  plain     mixing
     Exchange-correlation      =  SLA  PZ   NOGX NOGC ( 1  1  0  0 0 0)

     celldm(1)=   7.500000  celldm(2)=   0.000000  celldm(3)=   0.000000
     celldm(4)=   0.000000  celldm(5)=   0.000000  celldm(6)=   0.000000

     crystal axes: (cart. coord. in units of alat)
               a(1) = (  -0.500000   0.000000   0.500000 )  
               a(2) = (   0.000000   0.500000   0.500000 )  
               a(3) = (  -0.500000   0.500000   0.000000 )  

     reciprocal axes: (cart. coord. in units 2 pi/alat)
               b(1) = ( -1.000000 -1.000000  1.000000 )  
               b(2) = (  1.000000  1.000000  1.000000 )  
               b(3) = ( -1.000000  1.000000 -1.000000 )  


     PseudoPot. # 1 for Al read from file:
     /home/matic/pw/pseudo/Al.pz-vbc.UPF
     MD5 check sum: 614279c88ff8d45c90147292d03ed420
     Pseudo is Norm-conserving, Zval =  3.0
     Generated by new atomic code, or converted to UPF format
     Using radial grid of  171 points,  2 beta functions with: 
                l(1) =   0
                l(2) =   1

     atomic species   valence    mass     pseudopotential
        Al             3.00    26.98100     Al( 1.00)

     48 Sym. Ops., with inversion, found



   Cartesian axes

     site n.     atom                  positions (alat units)
         1           Al  tau(   1) = (   0.0000000   0.0000000   0.0000000  )

     number of k points=    60  Marzari-Vanderbilt smearing, width (Ry)=  0.1400
                       cart. coord. in units 2pi/alat
        k(    1) = (  -0.0625000   0.0625000   0.0625000), wk =   0.0078125
        k(    2) = (  -0.1875000   0.1875000  -0.0625000), wk =   0.0234375
        k(    3) = (  -0.3125000   0.3125000  -0.1875000), wk =   0.0234375
        k(    4) = (  -0.4375000   0.4375000  -0.3125000), wk =   0.0234375
        k(    5) = (   0.4375000  -0.4375000   0.5625000), wk =   0.0234375
        k(    6) = (   0.3125000  -0.3125000   0.4375000), wk =   0.0234375
        k(    7) = (   0.1875000  -0.1875000   0.3125000), wk =   0.0234375
        k(    8) = (   0.0625000  -0.0625000   0.1875000), wk =   0.0234375
        k(    9) = (  -0.0625000   0.3125000   0.0625000), wk =   0.0234375
        k(   10) = (  -0.1875000   0.4375000  -0.0625000), wk =   0.0468750
        k(   11) = (  -0.3125000   0.5625000  -0.1875000), wk =   0.0468750
        k(   12) = (   0.5625000  -0.3125000   0.6875000), wk =   0.0468750
        k(   13) = (   0.4375000  -0.1875000   0.5625000), wk =   0.0468750
        k(   14) = (   0.3125000  -0.0625000   0.4375000), wk =   0.0468750
        k(   15) = (   0.1875000   0.0625000   0.3125000), wk =   0.0468750
        k(   16) = (  -0.0625000   0.5625000   0.0625000), wk =   0.0234375
        k(   17) = (  -0.1875000   0.6875000  -0.0625000), wk =   0.0468750
        k(   18) = (   0.6875000  -0.1875000   0.8125000), wk =   0.0468750
        k(   19) = (   0.5625000  -0.0625000   0.6875000), wk =   0.0468750
        k(   20) = (   0.4375000   0.0625000   0.5625000), wk =   0.0468750
        k(   21) = (   0.3125000   0.1875000   0.4375000), wk =   0.0468750
        k(   22) = (  -0.0625000   0.8125000   0.0625000), wk =   0.0234375
        k(   23) = (   0.8125000  -0.0625000   0.9375000), wk =   0.0468750
        k(   24) = (   0.6875000   0.0625000   0.8125000), wk =   0.0468750
        k(   25) = (   0.5625000   0.1875000   0.6875000), wk =   0.0468750
        k(   26) = (   0.4375000   0.3125000   0.5625000), wk =   0.0468750
        k(   27) = (  -0.0625000  -0.9375000   0.0625000), wk =   0.0234375
        k(   28) = (  -0.1875000  -0.8125000  -0.0625000), wk =   0.0468750
        k(   29) = (  -0.3125000  -0.6875000  -0.1875000), wk =   0.0468750
        k(   30) = (  -0.0625000  -0.6875000   0.0625000), wk =   0.0234375
        k(   31) = (  -0.1875000  -0.5625000  -0.0625000), wk =   0.0468750
        k(   32) = (  -0.0625000  -0.4375000   0.0625000), wk =   0.0234375
        k(   33) = (  -0.1875000   0.1875000   0.1875000), wk =   0.0078125
        k(   34) = (  -0.3125000   0.3125000   0.0625000), wk =   0.0234375
        k(   35) = (  -0.4375000   0.4375000  -0.0625000), wk =   0.0234375
        k(   36) = (   0.4375000  -0.4375000   0.8125000), wk =   0.0234375
        k(   37) = (   0.3125000  -0.3125000   0.6875000), wk =   0.0234375
        k(   38) = (   0.1875000  -0.1875000   0.5625000), wk =   0.0234375
        k(   39) = (  -0.1875000   0.4375000   0.1875000), wk =   0.0234375
        k(   40) = (  -0.3125000   0.5625000   0.0625000), wk =   0.0468750
        k(   41) = (   0.5625000  -0.3125000   0.9375000), wk =   0.0468750
        k(   42) = (   0.4375000  -0.1875000   0.8125000), wk =   0.0468750
        k(   43) = (   0.3125000  -0.0625000   0.6875000), wk =   0.0468750
        k(   44) = (  -0.1875000   0.6875000   0.1875000), wk =   0.0234375
        k(   45) = (   0.6875000  -0.1875000   1.0625000), wk =   0.0468750
        k(   46) = (   0.5625000  -0.0625000   0.9375000), wk =   0.0468750
        k(   47) = (   0.4375000   0.0625000   0.8125000), wk =   0.0468750
        k(   48) = (  -0.1875000  -1.0625000   0.1875000), wk =   0.0234375
        k(   49) = (  -0.3125000  -0.9375000   0.0625000), wk =   0.0468750
        k(   50) = (  -0.1875000  -0.8125000   0.1875000), wk =   0.0234375
        k(   51) = (  -0.3125000   0.3125000   0.3125000), wk =   0.0078125
        k(   52) = (  -0.4375000   0.4375000   0.1875000), wk =   0.0234375
        k(   53) = (   0.4375000  -0.4375000   1.0625000), wk =   0.0234375
        k(   54) = (   0.3125000  -0.3125000   0.9375000), wk =   0.0234375
        k(   55) = (  -0.3125000   0.5625000   0.3125000), wk =   0.0234375
        k(   56) = (   0.5625000  -0.3125000   1.1875000), wk =   0.0468750
        k(   57) = (   0.4375000  -0.1875000   1.0625000), wk =   0.0468750
        k(   58) = (  -0.3125000  -1.1875000   0.3125000), wk =   0.0234375
        k(   59) = (  -0.4375000   0.4375000   0.4375000), wk =   0.0078125
        k(   60) = (   0.4375000  -0.4375000   1.3125000), wk =   0.0234375

     Dense  grid:      609 G-vectors     FFT dimensions: (  12,  12,  12)

     Estimated max dynamical RAM per process >       0.51 MB

     Estimated total dynamical RAM >       1.01 MB

     Initial potential from superposition of free atoms

     starting charge    2.99794, renormalised to    3.00000
     Starting wfcs are    4 randomized atomic wfcs +    2 random wfcs

     total cpu time spent up to now is        0.0 secs

     Self-consistent Calculation

     iteration #  1     ecut=    12.00 Ry     beta= 0.70
     Davidson diagonalization with overlap
     ethr =  1.00E-02,  avg # of iterations =  4.2

     Threshold (ethr) on eigenvalues was too large:
     Diagonalizing with lowered threshold

     Davidson diagonalization with overlap
     ethr =  2.03E-04,  avg # of iterations =  1.1

     total cpu time spent up to now is        0.2 secs

     total energy              =      -4.18441306 Ry
     Harris-Foulkes estimate   =      -4.18523755 Ry
     estimated scf accuracy    <       0.00607485 Ry

     iteration #  2     ecut=    12.00 Ry     beta= 0.70
     Davidson diagonalization with overlap
     ethr =  2.02E-04,  avg # of iterations =  1.0

     total cpu time spent up to now is        0.3 secs

     total energy              =      -4.18440505 Ry
     Harris-Foulkes estimate   =      -4.18443784 Ry
     estimated scf accuracy    <       0.00047330 Ry

     iteration #  3     ecut=    12.00 Ry     beta= 0.70
     Davidson diagonalization with overlap
     ethr =  1.58E-05,  avg # of iterations =  1.3

     total cpu time spent up to now is        0.3 secs

     total energy              =      -4.18440782 Ry
     Harris-Foulkes estimate   =      -4.18440775 Ry
     estimated scf accuracy    <       0.00000032 Ry

     iteration #  4     ecut=    12.00 Ry     beta= 0.70
     Davidson diagonalization with overlap
     ethr =  1.05E-08,  avg # of iterations =  1.9

     total cpu time spent up to now is        0.4 secs

     total energy              =      -4.18440783 Ry
     Harris-Foulkes estimate   =      -4.18440783 Ry
     estimated scf accuracy    <          3.2E-09 Ry

     iteration #  5     ecut=    12.00 Ry     beta= 0.70
     Davidson diagonalization with overlap
     ethr =  1.06E-10,  avg # of iterations =  1.5

     total cpu time spent up to now is        0.4 secs

     End of self-consistent calculation

          k =-0.0625 0.0625 0.0625 (    65 PWs)   bands (ev):

    -3.0492  19.3456  20.8143  20.8143  23.1675  23.1675

          k =-0.1875 0.1875-0.0625 (    65 PWs)   bands (ev):

    -2.4554  15.9291  18.1747  21.3505  23.3906  23.8187

          k =-0.3125 0.3125-0.1875 (    72 PWs)   bands (ev):

    -0.9970  11.1123  17.4198  20.7332  21.8009  23.3113

          k =-0.4375 0.4375-0.3125 (    73 PWs)   bands (ev):

     1.3004   6.8547  17.4322  19.7883  20.8126  21.3885

          k = 0.4375-0.4375 0.5625 (    74 PWs)   bands (ev):

     3.2597   4.4035  18.1902  18.5583  20.1085  21.5562

          k = 0.3125-0.3125 0.4375 (    74 PWs)   bands (ev):

     0.4431   8.2008  18.0536  19.5376  19.7273  23.0357

          k = 0.1875-0.1875 0.3125 (    69 PWs)   bands (ev):

    -1.5771  12.6771  18.2791  19.7343  21.9203  24.1756

          k = 0.0625-0.0625 0.1875 (    64 PWs)   bands (ev):

    -2.7510  17.6582  19.2209  20.3222  22.5012  24.5216

          k =-0.0625 0.3125 0.0625 (    68 PWs)   bands (ev):

    -2.1650  16.1212  17.7740  18.9559  21.4660  21.8442

          k =-0.1875 0.4375-0.0625 (    73 PWs)   bands (ev):

    -0.9986  13.0562  15.5389  18.6282  19.6029  22.3540

          k =-0.3125 0.5625-0.1875 (    73 PWs)   bands (ev):

     1.0149   8.7146  15.1862  16.3669  19.6636  24.4698

          k = 0.5625-0.3125 0.6875 (    76 PWs)   bands (ev):

     3.8076   4.9515  14.7079  15.8025  20.2420  23.0637

          k = 0.4375-0.1875 0.5625 (    75 PWs)   bands (ev):

     1.8643   7.3725  13.9923  17.0356  21.4948  22.3310

          k = 0.3125-0.0625 0.4375 (    74 PWs)   bands (ev):

    -0.4205  11.4826  14.1301  19.0471  22.0265  23.4568

          k = 0.1875 0.0625 0.3125 (    68 PWs)   bands (ev):

    -1.8701  14.3743  16.7775  20.7448  21.7237  23.3366

          k =-0.0625 0.5625 0.0625 (    76 PWs)   bands (ev):

    -0.1349  13.7505  15.2569  15.5965  16.6381  19.8229

          k =-0.1875 0.6875-0.0625 (    77 PWs)   bands (ev):

     1.5764  11.1818  12.6067  13.8902  17.8147  20.8652

          k = 0.6875-0.1875 0.8125 (    75 PWs)   bands (ev):

     4.0801   7.3580  10.8379  14.0118  18.4398  24.5985

          k = 0.5625-0.0625 0.6875 (    73 PWs)   bands (ev):

     4.0947   7.2388   9.9395  15.0165  19.5719  26.2140

          k = 0.4375 0.0625 0.5625 (    75 PWs)   bands (ev):

     1.5794   9.0969  11.8116  16.7885  21.3480  23.9154

          k = 0.3125 0.1875 0.4375 (    72 PWs)   bands (ev):

    -0.1292   9.7869  16.2217  19.2792  20.4891  23.6059

          k =-0.0625 0.8125 0.0625 (    76 PWs)   bands (ev):

     2.9738   9.7194  12.4445  14.3963  15.2870  18.6555

          k = 0.8125-0.0625 0.9375 (    74 PWs)   bands (ev):

     5.0866   7.6655  10.4347  13.0749  17.0286  20.1999

          k = 0.6875 0.0625 0.8125 (    74 PWs)   bands (ev):

     5.8760   7.0564   8.6037  13.7494  18.1861  24.4166

          k = 0.5625 0.1875 0.6875 (    78 PWs)   bands (ev):

     4.3542   5.4842  12.1646  15.2682  19.7969  24.5323

          k = 0.4375 0.3125 0.5625 (    73 PWs)   bands (ev):

     2.4281   5.7669  16.4575  17.5299  20.7844  21.8888

          k =-0.0625-0.9375 0.0625 (    72 PWs)   bands (ev):

     4.8203   7.4036  12.1777  14.1594  15.0185  18.4421

          k =-0.1875-0.8125-0.0625 (    77 PWs)   bands (ev):

     3.2501   9.9298  10.7369  13.3377  17.2908  20.4101

          k =-0.3125-0.6875-0.1875 (    74 PWs)   bands (ev):

     2.4261   7.9041  13.4013  14.5670  18.9472  24.8881

          k =-0.0625-0.6875 0.0625 (    76 PWs)   bands (ev):

     1.2930  12.3365  13.0044  14.8752  15.8273  19.1329

          k =-0.1875-0.5625-0.0625 (    76 PWs)   bands (ev):

     0.1539  11.9940  14.4799  15.6267  18.5931  21.5242

          k =-0.0625-0.4375 0.0625 (    76 PWs)   bands (ev):

    -1.2932  14.8123  16.5624  17.6411  18.3960  20.6800

          k =-0.1875 0.1875 0.1875 (    65 PWs)   bands (ev):

    -2.1599  14.2331  19.7348  19.7348  23.1336  24.4699

          k =-0.3125 0.3125 0.0625 (    71 PWs)   bands (ev):

    -1.2884  12.8049  15.3842  21.4333  22.5083  23.5133

          k =-0.4375 0.4375-0.0625 (    73 PWs)   bands (ev):

     0.4429  10.1617  12.8657  19.0452  21.1326  24.0621

          k = 0.4375-0.4375 0.8125 (    77 PWs)   bands (ev):

     2.9834   6.2894  12.9666  17.3216  19.2971  24.3380

          k = 0.3125-0.3125 0.6875 (    77 PWs)   bands (ev):

     2.9826   6.3036  13.9776  16.3385  18.1801  25.3227

          k = 0.1875-0.1875 0.5625 (    75 PWs)   bands (ev):

     0.4427  10.2882  15.7728  16.0873  17.8126  23.3939

          k =-0.1875 0.4375 0.1875 (    71 PWs)   bands (ev):

    -0.7058  11.3577  17.0602  18.6199  18.9848  24.1938

          k =-0.3125 0.5625 0.0625 (    75 PWs)   bands (ev):

     0.7267  10.4208  13.0840  16.1085  21.1409  23.5301

          k = 0.5625-0.3125 0.9375 (    75 PWs)   bands (ev):

     2.9841   8.2989  10.9874  14.0702  22.4225  23.3271

          k = 0.4375-0.1875 0.8125 (    74 PWs)   bands (ev):

     4.8898   6.0351  11.5482  12.8595  21.1805  24.2034

          k = 0.3125-0.0625 0.6875 (    76 PWs)   bands (ev):

     2.1412   9.6192  12.1883  13.3914  20.4038  23.0630

          k =-0.1875 0.6875 0.1875 (    77 PWs)   bands (ev):

     1.8599   9.4801  12.9314  15.3617  17.0078  22.7512

          k = 0.6875-0.1875 1.0625 (    76 PWs)   bands (ev):

     3.8067   9.0684  10.4717  11.9764  19.8942  22.6803

          k = 0.5625-0.0625 0.9375 (    75 PWs)   bands (ev):

     6.4067   7.4790   8.9598  10.4654  22.5045  24.7205

          k = 0.4375 0.0625 0.8125 (    73 PWs)   bands (ev):

     4.6316   7.7656  10.3212  11.6159  22.7236  23.8732

          k =-0.1875-1.0625 0.1875 (    74 PWs)   bands (ev):

     5.3508   7.8646   8.8216  14.6419  16.1929  22.0961

          k =-0.3125-0.9375 0.0625 (    75 PWs)   bands (ev):

     5.6185   8.1372   8.9157  11.6451  19.6377  22.4769

          k =-0.1875-0.8125 0.1875 (    76 PWs)   bands (ev):

     3.5298   8.9096  10.3402  14.8801  16.4636  22.3132

          k =-0.3125 0.3125 0.3125 (    74 PWs)   bands (ev):

    -0.4194   9.5376  19.2836  19.2836  22.2759  22.2759

          k =-0.4375 0.4375 0.1875 (    74 PWs)   bands (ev):

     0.7286   8.4512  15.0186  19.2929  21.2829  22.3163

          k = 0.4375-0.4375 1.0625 (    75 PWs)   bands (ev):

     2.7067   8.0339  10.7531  17.0779  19.0756  26.1238

          k = 0.3125-0.3125 0.9375 (    74 PWs)   bands (ev):

     5.4445   6.4511   9.1275  15.6146  17.4152  26.6829

          k =-0.3125 0.5625 0.3125 (    73 PWs)   bands (ev):

     1.5836   7.1213  16.7846  17.0718  18.8936  24.0577

          k = 0.5625-0.3125 1.1875 (    76 PWs)   bands (ev):

     3.2615   6.5613  13.1394  14.3693  21.5954  22.8016

          k = 0.4375-0.1875 1.0625 (    75 PWs)   bands (ev):

     5.7018   6.7160   9.3667  12.5341  20.9501  25.7477

          k =-0.3125-1.1875 0.3125 (    74 PWs)   bands (ev):

     4.6165   5.7751  11.3826  15.8552  17.6800  26.7814

          k =-0.4375 0.4375 0.4375 (    73 PWs)   bands (ev):

     2.1477   5.4962  19.5504  19.5504  20.5508  20.5508

          k = 0.4375-0.4375 1.3125 (    75 PWs)   bands (ev):

     3.5351   4.6773  15.5123  17.8144  19.7128  22.8238

     the Fermi energy is     8.3010 ev

!    total energy              =      -4.18440783 Ry
     Harris-Foulkes estimate   =      -4.18440783 Ry
     estimated scf accuracy    <          1.2E-11 Ry

     The total energy is the sum of the following terms:

     one-electron contribution =       2.94482966 Ry
     hartree contribution      =       0.00995877 Ry
     xc contribution           =      -1.63458872 Ry
     ewald contribution        =      -5.50183452 Ry
     smearing contrib. (-TS)   =      -0.00277303 Ry

     convergence has been achieved in   5 iterations

     Writing output data file pwscf.save/

     init_run     :      0.02s CPU      0.03s WALL (       1 calls)
     electrons    :      0.36s CPU      0.42s WALL (       1 calls)

     Called by init_run:
     wfcinit      :      0.01s CPU      0.02s WALL (       1 calls)
     potinit      :      0.00s CPU      0.00s WALL (       1 calls)
     hinit0       :      0.00s CPU      0.00s WALL (       1 calls)

     Called by electrons:
     c_bands      :      0.32s CPU      0.36s WALL (       6 calls)
     sum_band     :      0.04s CPU      0.05s WALL (       6 calls)
     v_of_rho     :      0.00s CPU      0.00s WALL (       6 calls)
     mix_rho      :      0.00s CPU      0.00s WALL (       6 calls)

     Called by c_bands:
     init_us_2    :      0.01s CPU      0.01s WALL (     780 calls)
     cegterg      :      0.31s CPU      0.35s WALL (     360 calls)

     Called by sum_band:

     Called by *egterg:
     h_psi        :      0.21s CPU      0.24s WALL (    1081 calls)
     g_psi        :      0.00s CPU      0.00s WALL (     661 calls)
     cdiaghg      :      0.08s CPU      0.09s WALL (     961 calls)

     Called by h_psi:
     h_psi:pot    :      0.20s CPU      0.24s WALL (    1081 calls)
     h_psi:calbec :      0.01s CPU      0.01s WALL (    1081 calls)
     vloc_psi     :      0.19s CPU      0.22s WALL (    1081 calls)
     add_vuspsi   :      0.00s CPU      0.00s WALL (    1081 calls)

     General routines
     calbec       :      0.00s CPU      0.01s WALL (    1081 calls)
     fft          :      0.00s CPU      0.00s WALL (      18 calls)
     ffts         :      0.00s CPU      0.00s WALL (       6 calls)
     fftw         :      0.20s CPU      0.24s WALL (   13254 calls)

     Parallel routines
     fft_scatt_xy :      0.03s CPU      0.03s WALL (   13278 calls)
     fft_scatt_yz :      0.04s CPU      0.05s WALL (   13278 calls)

     PWSCF        :      0.40s CPU      0.47s WALL


   This run was terminated on:  18:35: 0  13Aug2019            

=------------------------------------------------------------------------------=
   JOB DONE.
=------------------------------------------------------------------------------=
