### Running on host: assam

     Program PWSCF v.6.4.1 starts on 13Aug2019 at 18:34: 7 

     This program is part of the open-source Quantum ESPRESSO suite
     for quantum simulation of materials; please cite
         "P. Giannozzi et al., J. Phys.:Condens. Matter 21 395502 (2009);
         "P. Giannozzi et al., J. Phys.:Condens. Matter 29 465901 (2017);
          URL http://www.quantum-espresso.org", 
     in publications or presentations arising from this work. More details at
     http://www.quantum-espresso.org/quote

     Parallel version (MPI), running on     2 processors

     MPI processes distributed on     1 nodes
     R & G space division:  proc/nbgrp/npool/nimage =       2
     Reading input from scf.Al.mv-smearing.dg0.06.in

     Current dimensions of program PWSCF are:
     Max number of different atomic species (ntypx) = 10
     Max number of k-points (npk) =  40000
     Max angular momentum in pseudopotentials (lmaxx) =  3

     Subspace diagonalization in iterative solution of the eigenvalue problem:
     a serial algorithm will be used


     Parallelization info
     --------------------
     sticks:   dense  smooth     PW     G-vecs:    dense   smooth      PW
     Min          45      45     18                  304      304      83
     Max          46      46     19                  305      305      86
     Sum          91      91     37                  609      609     169



     bravais-lattice index     =            2
     lattice parameter (alat)  =       7.5000  a.u.
     unit-cell volume          =     105.4688 (a.u.)^3
     number of atoms/cell      =            1
     number of atomic types    =            1
     number of electrons       =         3.00
     number of Kohn-Sham states=            6
     kinetic-energy cutoff     =      12.0000  Ry
     charge density cutoff     =      48.0000  Ry
     convergence threshold     =      1.0E-09
     mixing beta               =       0.7000
     number of iterations used =            8  plain     mixing
     Exchange-correlation      =  SLA  PZ   NOGX NOGC ( 1  1  0  0 0 0)

     celldm(1)=   7.500000  celldm(2)=   0.000000  celldm(3)=   0.000000
     celldm(4)=   0.000000  celldm(5)=   0.000000  celldm(6)=   0.000000

     crystal axes: (cart. coord. in units of alat)
               a(1) = (  -0.500000   0.000000   0.500000 )  
               a(2) = (   0.000000   0.500000   0.500000 )  
               a(3) = (  -0.500000   0.500000   0.000000 )  

     reciprocal axes: (cart. coord. in units 2 pi/alat)
               b(1) = ( -1.000000 -1.000000  1.000000 )  
               b(2) = (  1.000000  1.000000  1.000000 )  
               b(3) = ( -1.000000  1.000000 -1.000000 )  


     PseudoPot. # 1 for Al read from file:
     /home/matic/pw/pseudo/Al.pz-vbc.UPF
     MD5 check sum: 614279c88ff8d45c90147292d03ed420
     Pseudo is Norm-conserving, Zval =  3.0
     Generated by new atomic code, or converted to UPF format
     Using radial grid of  171 points,  2 beta functions with: 
                l(1) =   0
                l(2) =   1

     atomic species   valence    mass     pseudopotential
        Al             3.00    26.98100     Al( 1.00)

     48 Sym. Ops., with inversion, found



   Cartesian axes

     site n.     atom                  positions (alat units)
         1           Al  tau(   1) = (   0.0000000   0.0000000   0.0000000  )

     number of k points=    28  Marzari-Vanderbilt smearing, width (Ry)=  0.0600
                       cart. coord. in units 2pi/alat
        k(    1) = (  -0.0833333   0.0833333   0.0833333), wk =   0.0185185
        k(    2) = (  -0.2500000   0.2500000  -0.0833333), wk =   0.0555556
        k(    3) = (  -0.4166667   0.4166667  -0.2500000), wk =   0.0555556
        k(    4) = (   0.4166667  -0.4166667   0.5833333), wk =   0.0555556
        k(    5) = (   0.2500000  -0.2500000   0.4166667), wk =   0.0555556
        k(    6) = (   0.0833333  -0.0833333   0.2500000), wk =   0.0555556
        k(    7) = (  -0.0833333   0.4166667   0.0833333), wk =   0.0555556
        k(    8) = (  -0.2500000   0.5833333  -0.0833333), wk =   0.1111111
        k(    9) = (   0.5833333  -0.2500000   0.7500000), wk =   0.1111111
        k(   10) = (   0.4166667  -0.0833333   0.5833333), wk =   0.1111111
        k(   11) = (   0.2500000   0.0833333   0.4166667), wk =   0.1111111
        k(   12) = (  -0.0833333   0.7500000   0.0833333), wk =   0.0555556
        k(   13) = (   0.7500000  -0.0833333   0.9166667), wk =   0.1111111
        k(   14) = (   0.5833333   0.0833333   0.7500000), wk =   0.1111111
        k(   15) = (   0.4166667   0.2500000   0.5833333), wk =   0.1111111
        k(   16) = (  -0.0833333  -0.9166667   0.0833333), wk =   0.0555556
        k(   17) = (  -0.2500000  -0.7500000  -0.0833333), wk =   0.1111111
        k(   18) = (  -0.0833333  -0.5833333   0.0833333), wk =   0.0555556
        k(   19) = (  -0.2500000   0.2500000   0.2500000), wk =   0.0185185
        k(   20) = (  -0.4166667   0.4166667   0.0833333), wk =   0.0555556
        k(   21) = (   0.4166667  -0.4166667   0.9166667), wk =   0.0555556
        k(   22) = (   0.2500000  -0.2500000   0.7500000), wk =   0.0555556
        k(   23) = (  -0.2500000   0.5833333   0.2500000), wk =   0.0555556
        k(   24) = (   0.5833333  -0.2500000   1.0833333), wk =   0.1111111
        k(   25) = (   0.4166667  -0.0833333   0.9166667), wk =   0.1111111
        k(   26) = (  -0.2500000  -1.0833333   0.2500000), wk =   0.0555556
        k(   27) = (  -0.4166667   0.4166667   0.4166667), wk =   0.0185185
        k(   28) = (   0.4166667  -0.4166667   1.2500000), wk =   0.0555556

     Dense  grid:      609 G-vectors     FFT dimensions: (  12,  12,  12)

     Estimated max dynamical RAM per process >       0.40 MB

     Estimated total dynamical RAM >       0.79 MB

     Initial potential from superposition of free atoms

     starting charge    2.99794, renormalised to    3.00000
     Starting wfcs are    4 randomized atomic wfcs +    2 random wfcs

     total cpu time spent up to now is        0.0 secs

     Self-consistent Calculation

     iteration #  1     ecut=    12.00 Ry     beta= 0.70
     Davidson diagonalization with overlap
     ethr =  1.00E-02,  avg # of iterations =  4.0

     Threshold (ethr) on eigenvalues was too large:
     Diagonalizing with lowered threshold

     Davidson diagonalization with overlap
     ethr =  2.06E-04,  avg # of iterations =  1.2

     total cpu time spent up to now is        0.1 secs

     total energy              =      -4.18283233 Ry
     Harris-Foulkes estimate   =      -4.18366233 Ry
     estimated scf accuracy    <       0.00616954 Ry

     iteration #  2     ecut=    12.00 Ry     beta= 0.70
     Davidson diagonalization with overlap
     ethr =  2.06E-04,  avg # of iterations =  1.0

     total cpu time spent up to now is        0.1 secs

     total energy              =      -4.18282391 Ry
     Harris-Foulkes estimate   =      -4.18285698 Ry
     estimated scf accuracy    <       0.00048211 Ry

     iteration #  3     ecut=    12.00 Ry     beta= 0.70
     Davidson diagonalization with overlap
     ethr =  1.61E-05,  avg # of iterations =  1.4

     total cpu time spent up to now is        0.2 secs

     total energy              =      -4.18282664 Ry
     Harris-Foulkes estimate   =      -4.18282658 Ry
     estimated scf accuracy    <       0.00000031 Ry

     iteration #  4     ecut=    12.00 Ry     beta= 0.70
     Davidson diagonalization with overlap
     ethr =  1.04E-08,  avg # of iterations =  1.8

     total cpu time spent up to now is        0.2 secs

     total energy              =      -4.18282666 Ry
     Harris-Foulkes estimate   =      -4.18282666 Ry
     estimated scf accuracy    <          3.0E-09 Ry

     iteration #  5     ecut=    12.00 Ry     beta= 0.70
     Davidson diagonalization with overlap
     ethr =  1.01E-10,  avg # of iterations =  1.4

     total cpu time spent up to now is        0.2 secs

     End of self-consistent calculation

          k =-0.0833 0.0833 0.0833 (    65 PWs)   bands (ev):

    -2.9623  18.4947  20.6071  20.6071  23.3329  23.5033

          k =-0.2500 0.2500-0.0833 (    67 PWs)   bands (ev):

    -1.9140  14.0418  17.0598  21.5247  22.8703  24.0763

          k =-0.4167 0.4167-0.2500 (    74 PWs)   bands (ev):

     0.6541   8.0371  16.5834  19.8833  21.2490  21.6879

          k = 0.4167-0.4167 0.5833 (    74 PWs)   bands (ev):

     3.1582   4.6649  17.4839  18.1353  19.8513  22.1329

          k = 0.2500-0.2500 0.4167 (    71 PWs)   bands (ev):

    -0.3644   9.9351  17.6828  19.2939  19.7621  24.3082

          k = 0.0833-0.0833 0.2500 (    66 PWs)   bands (ev):

    -2.4366  16.2859  18.5201  19.8449  22.4258  23.5004

          k =-0.0833 0.4167 0.0833 (    72 PWs)   bands (ev):

    -1.3990  14.4335  16.7961  18.1074  18.9837  21.2873

          k =-0.2500 0.5833-0.0833 (    75 PWs)   bands (ev):

     0.6521  10.7549  13.9222  15.3924  19.4758  22.7237

          k = 0.5833-0.2500 0.7500 (    74 PWs)   bands (ev):

     4.1332   5.6359  12.9458  14.4545  20.1888  24.1021

          k = 0.4167-0.0833 0.5833 (    74 PWs)   bands (ev):

     1.6644   8.8758  12.1761  16.2316  21.9926  23.1180

          k = 0.2500 0.0833 0.4167 (    72 PWs)   bands (ev):

    -0.8808  12.1726  15.3272  19.3600  20.7460  23.7162

          k =-0.0833 0.7500 0.0833 (    77 PWs)   bands (ev):

     2.1597  11.0368  12.1261  14.6530  15.7812  19.3136

          k = 0.7500-0.0833 0.9167 (    76 PWs)   bands (ev):

     5.0469   8.2361   9.4089  12.6741  18.1079  21.5842

          k = 0.5833 0.0833 0.7500 (    75 PWs)   bands (ev):

     5.1043   6.5121   9.7990  13.9616  19.7703  26.1780

          k = 0.4167 0.2500 0.5833 (    75 PWs)   bands (ev):

     2.1657   6.5938  15.2381  16.6807  20.9323  22.3998

          k =-0.0833-0.9167 0.0833 (    74 PWs)   bands (ev):

     4.5695   7.8009  11.6335  14.2296  15.2957  18.9114

          k =-0.2500-0.7500-0.0833 (    77 PWs)   bands (ev):

     2.6573   9.7883  11.5286  13.1802  18.5691  21.9670

          k =-0.0833-0.5833 0.0833 (    76 PWs)   bands (ev):

     0.1410  13.0174  14.8196  15.5075  16.7550  20.1331

          k =-0.2500 0.2500 0.2500 (    68 PWs)   bands (ev):

    -1.3942  11.8144  19.4227  19.4227  23.0020  23.3876

          k =-0.4167 0.4167 0.0833 (    73 PWs)   bands (ev):

     0.1446  10.2973  13.5727  19.4443  21.5257  23.4652

          k = 0.4167-0.4167 0.9167 (    75 PWs)   bands (ev):

     3.1596   7.4527  10.7727  16.8227  18.7944  26.1996

          k = 0.2500-0.2500 0.7500 (    74 PWs)   bands (ev):

     3.1575   7.5386  12.0573  15.5174  17.2648  24.7353

          k =-0.2500 0.5833 0.2500 (    75 PWs)   bands (ev):

     1.1597   8.5015  15.7355  16.3799  18.1779  25.3731

          k = 0.5833-0.2500 1.0833 (    76 PWs)   bands (ev):

     3.6487   7.9214  11.1435  12.6895  22.2007  23.6912

          k = 0.4167-0.0833 0.9167 (    75 PWs)   bands (ev):

     5.9931   7.4313   9.2246  10.9582  21.7938  24.6761

          k =-0.2500-1.0833 0.2500 (    74 PWs)   bands (ev):

     5.5171   7.0352   8.8686  15.0903  16.7822  24.3820

          k =-0.4167 0.4167 0.4167 (    73 PWs)   bands (ev):

     1.6666   6.1217  19.4561  19.4561  20.7886  20.7886

          k = 0.4167-0.4167 1.2500 (    79 PWs)   bands (ev):

     3.6460   5.1427  13.9163  17.2565  19.1890  23.9269

     the Fermi energy is     8.2896 ev

!    total energy              =      -4.18282666 Ry
     Harris-Foulkes estimate   =      -4.18282666 Ry
     estimated scf accuracy    <          1.2E-11 Ry

     The total energy is the sum of the following terms:

     one-electron contribution =       2.94435187 Ry
     hartree contribution      =       0.01008109 Ry
     xc contribution           =      -1.63467893 Ry
     ewald contribution        =      -5.50183452 Ry
     smearing contrib. (-TS)   =      -0.00074617 Ry

     convergence has been achieved in   5 iterations

     Writing output data file pwscf.save/

     init_run     :      0.01s CPU      0.02s WALL (       1 calls)
     electrons    :      0.16s CPU      0.19s WALL (       1 calls)

     Called by init_run:
     wfcinit      :      0.01s CPU      0.01s WALL (       1 calls)
     potinit      :      0.00s CPU      0.00s WALL (       1 calls)
     hinit0       :      0.00s CPU      0.00s WALL (       1 calls)

     Called by electrons:
     c_bands      :      0.13s CPU      0.16s WALL (       6 calls)
     sum_band     :      0.02s CPU      0.02s WALL (       6 calls)
     v_of_rho     :      0.00s CPU      0.00s WALL (       6 calls)
     mix_rho      :      0.00s CPU      0.00s WALL (       6 calls)

     Called by c_bands:
     init_us_2    :      0.00s CPU      0.00s WALL (     364 calls)
     cegterg      :      0.13s CPU      0.16s WALL (     168 calls)

     Called by sum_band:

     Called by *egterg:
     h_psi        :      0.09s CPU      0.11s WALL (     499 calls)
     g_psi        :      0.00s CPU      0.00s WALL (     303 calls)
     cdiaghg      :      0.03s CPU      0.04s WALL (     443 calls)

     Called by h_psi:
     h_psi:pot    :      0.09s CPU      0.11s WALL (     499 calls)
     h_psi:calbec :      0.00s CPU      0.00s WALL (     499 calls)
     vloc_psi     :      0.08s CPU      0.10s WALL (     499 calls)
     add_vuspsi   :      0.00s CPU      0.00s WALL (     499 calls)

     General routines
     calbec       :      0.00s CPU      0.00s WALL (     499 calls)
     fft          :      0.00s CPU      0.00s WALL (      18 calls)
     ffts         :      0.00s CPU      0.00s WALL (       6 calls)
     fftw         :      0.09s CPU      0.11s WALL (    6172 calls)

     Parallel routines
     fft_scatt_xy :      0.01s CPU      0.02s WALL (    6196 calls)
     fft_scatt_yz :      0.02s CPU      0.02s WALL (    6196 calls)

     PWSCF        :      0.18s CPU      0.22s WALL


   This run was terminated on:  18:34: 7  13Aug2019            

=------------------------------------------------------------------------------=
   JOB DONE.
=------------------------------------------------------------------------------=
